 Entering Gaussian System, Link 0=g09
 Initial command:
 /packages/gaussian/g09e01/l1.exe "/tmp/Gau-142471.inp" -scrdir="/tmp/"
 Entering Link 1 = /packages/gaussian/g09e01/l1.exe PID=    142472.
  
 Copyright (c) 1988,1990,1992,1993,1995,1998,2003,2009,2015,
            Gaussian, Inc.  All Rights Reserved.
  
 This is part of the Gaussian(R) 09 program.  It is based on
 the Gaussian(R) 03 system (copyright 2003, Gaussian, Inc.),
 the Gaussian(R) 98 system (copyright 1998, Gaussian, Inc.),
 the Gaussian(R) 94 system (copyright 1995, Gaussian, Inc.),
 the Gaussian 92(TM) system (copyright 1992, Gaussian, Inc.),
 the Gaussian 90(TM) system (copyright 1990, Gaussian, Inc.),
 the Gaussian 88(TM) system (copyright 1988, Gaussian, Inc.),
 the Gaussian 86(TM) system (copyright 1986, Carnegie Mellon
 University), and the Gaussian 82(TM) system (copyright 1983,
 Carnegie Mellon University). Gaussian is a federally registered
 trademark of Gaussian, Inc.
  
 This software contains proprietary and confidential information,
 including trade secrets, belonging to Gaussian, Inc.
  
 This software is provided under written license and may be
 used, copied, transmitted, or stored only in accord with that
 written license.
  
 The following legend is applicable only to US Government
 contracts under FAR:
  
                    RESTRICTED RIGHTS LEGEND
  
 Use, reproduction and disclosure by the US Government is
 subject to restrictions as set forth in subparagraphs (a)
 and (c) of the Commercial Computer Software - Restricted
 Rights clause in FAR 52.227-19.
  
 Gaussian, Inc.
 340 Quinnipiac St., Bldg. 40, Wallingford CT 06492
  
  
 ---------------------------------------------------------------
 Warning -- This program may not be used in any manner that
 competes with the business of Gaussian, Inc. or will provide
 assistance to any competitor of Gaussian, Inc.  The licensee
 of this program is prohibited from giving any competitor of
 Gaussian, Inc. access to this program.  By using this program,
 the user acknowledges that Gaussian, Inc. is engaged in the
 business of creating and licensing software in the field of
 computational chemistry and represents and warrants to the
 licensee that it is not a competitor of Gaussian, Inc. and that
 it will not use this program in any manner prohibited above.
 ---------------------------------------------------------------
  

 Cite this work as:
 Gaussian 09, Revision E.01,
 M. J. Frisch, G. W. Trucks, H. B. Schlegel, G. E. Scuseria, 
 M. A. Robb, J. R. Cheeseman, G. Scalmani, V. Barone, B. Mennucci, 
 G. A. Petersson, H. Nakatsuji, M. Caricato, X. Li, H. P. Hratchian, 
 A. F. Izmaylov, J. Bloino, G. Zheng, J. L. Sonnenberg, M. Hada, 
 M. Ehara, K. Toyota, R. Fukuda, J. Hasegawa, M. Ishida, T. Nakajima, 
 Y. Honda, O. Kitao, H. Nakai, T. Vreven, J. A. Montgomery, Jr., 
 J. E. Peralta, F. Ogliaro, M. Bearpark, J. J. Heyd, E. Brothers, 
 K. N. Kudin, V. N. Staroverov, T. Keith, R. Kobayashi, J. Normand, 
 K. Raghavachari, A. Rendell, J. C. Burant, S. S. Iyengar, J. Tomasi, 
 M. Cossi, N. Rega, J. M. Millam, M. Klene, J. E. Knox, J. B. Cross, 
 V. Bakken, C. Adamo, J. Jaramillo, R. Gomperts, R. E. Stratmann, 
 O. Yazyev, A. J. Austin, R. Cammi, C. Pomelli, J. W. Ochterski, 
 R. L. Martin, K. Morokuma, V. G. Zakrzewski, G. A. Voth, 
 P. Salvador, J. J. Dannenberg, S. Dapprich, A. D. Daniels, 
 O. Farkas, J. B. Foresman, J. V. Ortiz, J. Cioslowski, 
 and D. J. Fox, Gaussian, Inc., Wallingford CT, 2013.
 
 ******************************************
 Gaussian 09:  EM64L-G09RevE.01 30-Nov-2015
                18-Apr-2019 
 ******************************************
 ---------------------
 #n B3LYP/6-31G(d) opt
 ---------------------
 1/14=-1,18=20,19=15,26=3,38=1/1,3;
 2/9=110,12=2,17=6,18=5,40=1/2;
 3/5=1,6=6,7=1,11=2,16=1,25=1,30=1,71=1,74=-5/1,2,3;
 4//1;
 5/5=2,38=5/2;
 6/7=2,8=2,9=2,10=2,28=1/1;
 7//1,2,3,16;
 1/14=-1,18=20,19=15,26=3/3(2);
 2/9=110/2;
 99//99;
 2/9=110/2;
 3/5=1,6=6,7=1,11=2,16=1,25=1,30=1,71=1,74=-5/1,2,3;
 4/5=5,16=3,69=1/1;
 5/5=2,38=5/2;
 7//1,2,3,16;
 1/14=-1,18=20,19=15,26=3/3(-5);
 2/9=110/2;
 6/7=2,8=2,9=2,10=2,19=2,28=1/1;
 99/9=1/99;
 ---------------------
 geometry optimization
 ---------------------
 Symbolic Z-matrix:
 Charge =  0 Multiplicity = 1
 C                    -2.63184   3.1354   -0.00172 
 C                     2.61948   3.14156  -0.11592 
 C                     3.24177   2.49304  -1.20459 
 C                     3.66662   1.17075  -1.10103 
 C                     3.49713   0.44134   0.09692 
 C                     3.27055   1.22697   1.24584 
 C                     2.83407   2.54278   1.14144 
 C                    -2.69996   2.43876   1.22034 
 C                    -3.12746   1.11632   1.2677 
 C                    -3.50486   0.43304   0.09526 
 C                    -3.05279  -0.98397  -0.04658 
 C                    -2.69054  -1.77802   1.06301 
 C                    -1.56079  -2.59233   1.02098 
 C                    -0.74647  -2.64939  -0.13224 
 C                     0.74579  -2.66022  -0.04754 
 C                     1.37411  -2.38078   1.18411 
 C                     2.50547  -1.57427   1.24965 
 C                     3.0444   -0.98382   0.08669 
 C                     2.65847  -1.59794  -1.12414 
 C                     1.54387  -2.42849  -1.18847 
 C                    -1.35065  -2.17961  -1.3161 
 C                    -2.47427  -1.36233  -1.27395 
 C                    -3.80097   1.25033  -1.01781 
 C                    -3.37194   2.57566  -1.06576 
 H                     3.25446   2.96195  -2.18495 
 H                     3.98445   0.66643  -2.00909 
 H                     3.23306   0.7656    2.22694 
 H                     2.4647    3.02442   2.0414 
 H                    -2.21018   2.84426   2.10013 
 H                    -2.9495    0.56111   2.18312 
 H                    -3.19819  -1.64764   2.01537 
 H                    -1.23446  -3.06184   1.94489 
 H                     0.88094  -2.63305   2.11777 
 H                     2.84794  -1.2658    2.23243 
 H                     3.11665  -1.29584  -2.06095 
 H                     1.20596  -2.74983  -2.16925 
 H                    -0.83337  -2.26823  -2.2655 
 H                    -2.76155  -0.85126  -2.18748 
 H                    -4.23438   0.81353  -1.91404 
 H                    -3.4844    3.12445  -1.99762 
 H                    -2.1839    4.12081  -0.07426 
 H                     2.16656   4.12218  -0.21542 
 

 GradGradGradGradGradGradGradGradGradGradGradGradGradGradGradGradGradGrad
 Berny optimization.
 Initialization pass.
                           ----------------------------
                           !    Initial Parameters    !
                           ! (Angstroms and Degrees)  !
 --------------------------                            --------------------------
 ! Name  Definition              Value          Derivative Info.                !
 --------------------------------------------------------------------------------
 ! R1    R(1,8)                  1.4083         estimate D2E/DX2                !
 ! R2    R(1,24)                 1.4118         estimate D2E/DX2                !
 ! R3    R(1,41)                 1.0849         estimate D2E/DX2                !
 ! R4    R(2,3)                  1.4117         estimate D2E/DX2                !
 ! R5    R(2,7)                  1.4091         estimate D2E/DX2                !
 ! R6    R(2,42)                 1.0847         estimate D2E/DX2                !
 ! R7    R(3,4)                  1.3927         estimate D2E/DX2                !
 ! R8    R(3,25)                 1.0868         estimate D2E/DX2                !
 ! R9    R(4,5)                  1.4128         estimate D2E/DX2                !
 ! R10   R(4,26)                 1.0862         estimate D2E/DX2                !
 ! R11   R(5,6)                  1.4102         estimate D2E/DX2                !
 ! R12   R(5,18)                 1.4954         estimate D2E/DX2                !
 ! R13   R(6,7)                  1.3902         estimate D2E/DX2                !
 ! R14   R(6,27)                 1.0848         estimate D2E/DX2                !
 ! R15   R(7,28)                 1.0855         estimate D2E/DX2                !
 ! R16   R(8,9)                  1.3906         estimate D2E/DX2                !
 ! R17   R(8,29)                 1.0855         estimate D2E/DX2                !
 ! R18   R(9,10)                 1.4085         estimate D2E/DX2                !
 ! R19   R(9,30)                 1.0853         estimate D2E/DX2                !
 ! R20   R(10,11)                1.4941         estimate D2E/DX2                !
 ! R21   R(10,23)                1.4123         estimate D2E/DX2                !
 ! R22   R(11,12)                1.4117         estimate D2E/DX2                !
 ! R23   R(11,22)                1.4086         estimate D2E/DX2                !
 ! R24   R(12,13)                1.3933         estimate D2E/DX2                !
 ! R25   R(12,31)                1.0871         estimate D2E/DX2                !
 ! R26   R(13,14)                1.4129         estimate D2E/DX2                !
 ! R27   R(13,32)                1.0865         estimate D2E/DX2                !
 ! R28   R(14,15)                1.4947         estimate D2E/DX2                !
 ! R29   R(14,21)                1.4097         estimate D2E/DX2                !
 ! R30   R(15,16)                1.4106         estimate D2E/DX2                !
 ! R31   R(15,20)                1.4115         estimate D2E/DX2                !
 ! R32   R(16,17)                1.3909         estimate D2E/DX2                !
 ! R33   R(16,33)                1.0856         estimate D2E/DX2                !
 ! R34   R(17,18)                1.4112         estimate D2E/DX2                !
 ! R35   R(17,34)                1.0855         estimate D2E/DX2                !
 ! R36   R(18,19)                1.4114         estimate D2E/DX2                !
 ! R37   R(19,20)                1.3915         estimate D2E/DX2                !
 ! R38   R(19,35)                1.0857         estimate D2E/DX2                !
 ! R39   R(20,36)                1.086          estimate D2E/DX2                !
 ! R40   R(21,22)                1.3901         estimate D2E/DX2                !
 ! R41   R(21,37)                1.0848         estimate D2E/DX2                !
 ! R42   R(22,38)                1.0855         estimate D2E/DX2                !
 ! R43   R(23,24)                1.3939         estimate D2E/DX2                !
 ! R44   R(23,39)                1.0871         estimate D2E/DX2                !
 ! R45   R(24,40)                1.0873         estimate D2E/DX2                !
 ! A1    A(8,1,24)             115.6266         estimate D2E/DX2                !
 ! A2    A(8,1,41)             121.8237         estimate D2E/DX2                !
 ! A3    A(24,1,41)            121.7473         estimate D2E/DX2                !
 ! A4    A(3,2,7)              115.1996         estimate D2E/DX2                !
 ! A5    A(3,2,42)             121.9113         estimate D2E/DX2                !
 ! A6    A(7,2,42)             121.9775         estimate D2E/DX2                !
 ! A7    A(2,3,4)              120.882          estimate D2E/DX2                !
 ! A8    A(2,3,25)             120.17           estimate D2E/DX2                !
 ! A9    A(4,3,25)             118.2389         estimate D2E/DX2                !
 ! A10   A(3,4,5)              121.1078         estimate D2E/DX2                !
 ! A11   A(3,4,26)             117.8979         estimate D2E/DX2                !
 ! A12   A(5,4,26)             120.2818         estimate D2E/DX2                !
 ! A13   A(4,5,6)              114.9921         estimate D2E/DX2                !
 ! A14   A(4,5,18)             121.5056         estimate D2E/DX2                !
 ! A15   A(6,5,18)             119.2025         estimate D2E/DX2                !
 ! A16   A(5,6,7)              121.1015         estimate D2E/DX2                !
 ! A17   A(5,6,27)             120.361          estimate D2E/DX2                !
 ! A18   A(7,6,27)             117.3612         estimate D2E/DX2                !
 ! A19   A(2,7,6)              121.1322         estimate D2E/DX2                !
 ! A20   A(2,7,28)             119.9617         estimate D2E/DX2                !
 ! A21   A(6,7,28)             117.6789         estimate D2E/DX2                !
 ! A22   A(1,8,9)              120.9863         estimate D2E/DX2                !
 ! A23   A(1,8,29)             119.7801         estimate D2E/DX2                !
 ! A24   A(9,8,29)             117.7969         estimate D2E/DX2                !
 ! A25   A(8,9,10)             121.0199         estimate D2E/DX2                !
 ! A26   A(8,9,30)             117.6975         estimate D2E/DX2                !
 ! A27   A(10,9,30)            119.8584         estimate D2E/DX2                !
 ! A28   A(9,10,11)            117.2592         estimate D2E/DX2                !
 ! A29   A(9,10,23)            115.5619         estimate D2E/DX2                !
 ! A30   A(11,10,23)           122.5105         estimate D2E/DX2                !
 ! A31   A(10,11,12)           122.4436         estimate D2E/DX2                !
 ! A32   A(10,11,22)           117.4972         estimate D2E/DX2                !
 ! A33   A(12,11,22)           115.3647         estimate D2E/DX2                !
 ! A34   A(11,12,13)           120.8709         estimate D2E/DX2                !
 ! A35   A(11,12,31)           120.0859         estimate D2E/DX2                !
 ! A36   A(13,12,31)           118.3723         estimate D2E/DX2                !
 ! A37   A(12,13,14)           121.0352         estimate D2E/DX2                !
 ! A38   A(12,13,32)           118.0629         estimate D2E/DX2                !
 ! A39   A(14,13,32)           120.2314         estimate D2E/DX2                !
 ! A40   A(13,14,15)           121.9682         estimate D2E/DX2                !
 ! A41   A(13,14,21)           115.1487         estimate D2E/DX2                !
 ! A42   A(15,14,21)           118.5478         estimate D2E/DX2                !
 ! A43   A(14,15,16)           119.5209         estimate D2E/DX2                !
 ! A44   A(14,15,20)           121.1642         estimate D2E/DX2                !
 ! A45   A(16,15,20)           114.9222         estimate D2E/DX2                !
 ! A46   A(15,16,17)           121.2182         estimate D2E/DX2                !
 ! A47   A(15,16,33)           120.1679         estimate D2E/DX2                !
 ! A48   A(17,16,33)           117.6266         estimate D2E/DX2                !
 ! A49   A(16,17,18)           120.9568         estimate D2E/DX2                !
 ! A50   A(16,17,34)           117.6486         estimate D2E/DX2                !
 ! A51   A(18,17,34)           120.4456         estimate D2E/DX2                !
 ! A52   A(5,18,17)            120.579          estimate D2E/DX2                !
 ! A53   A(5,18,19)            120.2201         estimate D2E/DX2                !
 ! A54   A(17,18,19)           114.8647         estimate D2E/DX2                !
 ! A55   A(18,19,20)           121.2238         estimate D2E/DX2                !
 ! A56   A(18,19,35)           120.2481         estimate D2E/DX2                !
 ! A57   A(20,19,35)           117.6589         estimate D2E/DX2                !
 ! A58   A(15,20,19)           120.8981         estimate D2E/DX2                !
 ! A59   A(15,20,36)           120.3643         estimate D2E/DX2                !
 ! A60   A(19,20,36)           117.8785         estimate D2E/DX2                !
 ! A61   A(14,21,22)           121.1255         estimate D2E/DX2                !
 ! A62   A(14,21,37)           120.2241         estimate D2E/DX2                !
 ! A63   A(22,21,37)           117.3877         estimate D2E/DX2                !
 ! A64   A(11,22,21)           121.0853         estimate D2E/DX2                !
 ! A65   A(11,22,38)           119.8764         estimate D2E/DX2                !
 ! A66   A(21,22,38)           117.7259         estimate D2E/DX2                !
 ! A67   A(10,23,24)           120.8518         estimate D2E/DX2                !
 ! A68   A(10,23,39)           120.0536         estimate D2E/DX2                !
 ! A69   A(24,23,39)           118.4491         estimate D2E/DX2                !
 ! A70   A(1,24,23)            120.8239         estimate D2E/DX2                !
 ! A71   A(1,24,40)            120.0027         estimate D2E/DX2                !
 ! A72   A(23,24,40)           118.5265         estimate D2E/DX2                !
 ! D1    D(24,1,8,9)            17.988          estimate D2E/DX2                !
 ! D2    D(24,1,8,29)         -175.9898         estimate D2E/DX2                !
 ! D3    D(41,1,8,9)          -172.1055         estimate D2E/DX2                !
 ! D4    D(41,1,8,29)           -6.0833         estimate D2E/DX2                !
 ! D5    D(8,1,24,23)          -17.9232         estimate D2E/DX2                !
 ! D6    D(8,1,24,40)          171.4313         estimate D2E/DX2                !
 ! D7    D(41,1,24,23)         172.1619         estimate D2E/DX2                !
 ! D8    D(41,1,24,40)           1.5163         estimate D2E/DX2                !
 ! D9    D(7,2,3,4)             18.8741         estimate D2E/DX2                !
 ! D10   D(7,2,3,25)          -170.9442         estimate D2E/DX2                !
 ! D11   D(42,2,3,4)          -171.8553         estimate D2E/DX2                !
 ! D12   D(42,2,3,25)           -1.6736         estimate D2E/DX2                !
 ! D13   D(3,2,7,6)            -18.2873         estimate D2E/DX2                !
 ! D14   D(3,2,7,28)           174.6619         estimate D2E/DX2                !
 ! D15   D(42,2,7,6)           172.45           estimate D2E/DX2                !
 ! D16   D(42,2,7,28)            5.3991         estimate D2E/DX2                !
 ! D17   D(2,3,4,5)             -0.447          estimate D2E/DX2                !
 ! D18   D(2,3,4,26)           169.9067         estimate D2E/DX2                !
 ! D19   D(25,3,4,5)          -170.8137         estimate D2E/DX2                !
 ! D20   D(25,3,4,26)           -0.46           estimate D2E/DX2                !
 ! D21   D(3,4,5,6)            -18.5611         estimate D2E/DX2                !
 ! D22   D(3,4,5,18)           137.9427         estimate D2E/DX2                !
 ! D23   D(26,4,5,6)           171.3134         estimate D2E/DX2                !
 ! D24   D(26,4,5,18)          -32.1829         estimate D2E/DX2                !
 ! D25   D(4,5,6,7)             19.1985         estimate D2E/DX2                !
 ! D26   D(4,5,6,27)          -173.5222         estimate D2E/DX2                !
 ! D27   D(18,5,6,7)          -137.8836         estimate D2E/DX2                !
 ! D28   D(18,5,6,27)           29.3957         estimate D2E/DX2                !
 ! D29   D(4,5,18,17)         -161.1787         estimate D2E/DX2                !
 ! D30   D(4,5,18,19)           -5.7553         estimate D2E/DX2                !
 ! D31   D(6,5,18,17)           -5.6334         estimate D2E/DX2                !
 ! D32   D(6,5,18,19)          149.7899         estimate D2E/DX2                !
 ! D33   D(5,6,7,2)             -0.8138         estimate D2E/DX2                !
 ! D34   D(5,6,7,28)           166.5226         estimate D2E/DX2                !
 ! D35   D(27,6,7,2)          -168.4608         estimate D2E/DX2                !
 ! D36   D(27,6,7,28)           -1.1245         estimate D2E/DX2                !
 ! D37   D(1,8,9,10)             0.0236         estimate D2E/DX2                !
 ! D38   D(1,8,9,30)           166.3834         estimate D2E/DX2                !
 ! D39   D(29,8,9,10)         -166.2672         estimate D2E/DX2                !
 ! D40   D(29,8,9,30)            0.0927         estimate D2E/DX2                !
 ! D41   D(8,9,10,11)          138.3919         estimate D2E/DX2                !
 ! D42   D(8,9,10,23)          -18.0473         estimate D2E/DX2                !
 ! D43   D(30,9,10,11)         -27.6768         estimate D2E/DX2                !
 ! D44   D(30,9,10,23)         175.8841         estimate D2E/DX2                !
 ! D45   D(9,10,11,12)          21.94           estimate D2E/DX2                !
 ! D46   D(9,10,11,22)        -132.6325         estimate D2E/DX2                !
 ! D47   D(23,10,11,12)        176.6242         estimate D2E/DX2                !
 ! D48   D(23,10,11,22)         22.0517         estimate D2E/DX2                !
 ! D49   D(9,10,23,24)          18.0478         estimate D2E/DX2                !
 ! D50   D(9,10,23,39)        -171.3037         estimate D2E/DX2                !
 ! D51   D(11,10,23,24)       -137.0317         estimate D2E/DX2                !
 ! D52   D(11,10,23,39)         33.6168         estimate D2E/DX2                !
 ! D53   D(10,11,12,13)       -136.7075         estimate D2E/DX2                !
 ! D54   D(10,11,12,31)         33.7527         estimate D2E/DX2                !
 ! D55   D(22,11,12,13)         18.3633         estimate D2E/DX2                !
 ! D56   D(22,11,12,31)       -171.1764         estimate D2E/DX2                !
 ! D57   D(10,11,22,21)        138.2414         estimate D2E/DX2                !
 ! D58   D(10,11,22,38)        -28.3804         estimate D2E/DX2                !
 ! D59   D(12,11,22,21)        -18.1172         estimate D2E/DX2                !
 ! D60   D(12,11,22,38)        175.261          estimate D2E/DX2                !
 ! D61   D(11,12,13,14)         -0.1055         estimate D2E/DX2                !
 ! D62   D(11,12,13,32)        170.5301         estimate D2E/DX2                !
 ! D63   D(31,12,13,14)       -170.7255         estimate D2E/DX2                !
 ! D64   D(31,12,13,32)         -0.0899         estimate D2E/DX2                !
 ! D65   D(12,13,14,15)        137.8705         estimate D2E/DX2                !
 ! D66   D(12,13,14,21)        -18.3793         estimate D2E/DX2                !
 ! D67   D(32,13,14,15)        -32.5634         estimate D2E/DX2                !
 ! D68   D(32,13,14,21)        171.1868         estimate D2E/DX2                !
 ! D69   D(13,14,15,16)        -10.931          estimate D2E/DX2                !
 ! D70   D(13,14,15,20)       -166.2131         estimate D2E/DX2                !
 ! D71   D(21,14,15,16)        144.5476         estimate D2E/DX2                !
 ! D72   D(21,14,15,20)        -10.7345         estimate D2E/DX2                !
 ! D73   D(13,14,21,22)         18.6867         estimate D2E/DX2                !
 ! D74   D(13,14,21,37)       -174.4835         estimate D2E/DX2                !
 ! D75   D(15,14,21,22)       -138.4235         estimate D2E/DX2                !
 ! D76   D(15,14,21,37)         28.4063         estimate D2E/DX2                !
 ! D77   D(14,15,16,17)       -138.2421         estimate D2E/DX2                !
 ! D78   D(14,15,16,33)         30.1205         estimate D2E/DX2                !
 ! D79   D(20,15,16,17)         18.5202         estimate D2E/DX2                !
 ! D80   D(20,15,16,33)       -173.1171         estimate D2E/DX2                !
 ! D81   D(14,15,20,19)        136.46           estimate D2E/DX2                !
 ! D82   D(14,15,20,36)        -32.7044         estimate D2E/DX2                !
 ! D83   D(16,15,20,19)        -19.8851         estimate D2E/DX2                !
 ! D84   D(16,15,20,36)        170.9505         estimate D2E/DX2                !
 ! D85   D(15,16,17,18)          1.4473         estimate D2E/DX2                !
 ! D86   D(15,16,17,34)        170.3473         estimate D2E/DX2                !
 ! D87   D(33,16,17,18)       -167.2006         estimate D2E/DX2                !
 ! D88   D(33,16,17,34)          1.6994         estimate D2E/DX2                !
 ! D89   D(16,17,18,5)         136.7207         estimate D2E/DX2                !
 ! D90   D(16,17,18,19)        -19.9444         estimate D2E/DX2                !
 ! D91   D(34,17,18,5)         -31.8701         estimate D2E/DX2                !
 ! D92   D(34,17,18,19)        171.4648         estimate D2E/DX2                !
 ! D93   D(5,18,19,20)        -138.188          estimate D2E/DX2                !
 ! D94   D(5,18,19,35)          30.8892         estimate D2E/DX2                !
 ! D95   D(17,18,19,20)         18.5677         estimate D2E/DX2                !
 ! D96   D(17,18,19,35)       -172.3551         estimate D2E/DX2                !
 ! D97   D(18,19,20,15)          1.3754         estimate D2E/DX2                !
 ! D98   D(18,19,20,36)        170.8016         estimate D2E/DX2                !
 ! D99   D(35,19,20,15)       -167.9748         estimate D2E/DX2                !
 ! D100  D(35,19,20,36)          1.4515         estimate D2E/DX2                !
 ! D101  D(14,21,22,11)         -0.4663         estimate D2E/DX2                !
 ! D102  D(14,21,22,38)        166.4337         estimate D2E/DX2                !
 ! D103  D(37,21,22,11)       -167.6559         estimate D2E/DX2                !
 ! D104  D(37,21,22,38)         -0.7559         estimate D2E/DX2                !
 ! D105  D(10,23,24,1)          -0.088          estimate D2E/DX2                !
 ! D106  D(10,23,24,40)        170.6928         estimate D2E/DX2                !
 ! D107  D(39,23,24,1)        -170.8833         estimate D2E/DX2                !
 ! D108  D(39,23,24,40)         -0.1025         estimate D2E/DX2                !
 --------------------------------------------------------------------------------
 Trust Radius=3.00D-01 FncErr=1.00D-07 GrdErr=1.00D-06
 Number of steps in this run=    235 maximum allowed number of steps=    252.
 GradGradGradGradGradGradGradGradGradGradGradGradGradGradGradGradGradGrad

                          Input orientation:                          
 ---------------------------------------------------------------------
 Center     Atomic      Atomic             Coordinates (Angstroms)
 Number     Number       Type             X           Y           Z
 ---------------------------------------------------------------------
      1          6           0       -2.631836    3.135405   -0.001722
      2          6           0        2.619483    3.141564   -0.115924
      3          6           0        3.241773    2.493041   -1.204589
      4          6           0        3.666621    1.170750   -1.101032
      5          6           0        3.497127    0.441335    0.096924
      6          6           0        3.270555    1.226972    1.245842
      7          6           0        2.834073    2.542778    1.141440
      8          6           0       -2.699962    2.438756    1.220339
      9          6           0       -3.127456    1.116319    1.267703
     10          6           0       -3.504858    0.433038    0.095256
     11          6           0       -3.052794   -0.983971   -0.046577
     12          6           0       -2.690538   -1.778015    1.063011
     13          6           0       -1.560792   -2.592330    1.020980
     14          6           0       -0.746466   -2.649393   -0.132240
     15          6           0        0.745787   -2.660217   -0.047540
     16          6           0        1.374110   -2.380780    1.184108
     17          6           0        2.505469   -1.574265    1.249645
     18          6           0        3.044404   -0.983817    0.086688
     19          6           0        2.658465   -1.597937   -1.124137
     20          6           0        1.543865   -2.428489   -1.188470
     21          6           0       -1.350648   -2.179611   -1.316097
     22          6           0       -2.474268   -1.362326   -1.273952
     23          6           0       -3.800971    1.250325   -1.017810
     24          6           0       -3.371938    2.575660   -1.065762
     25          1           0        3.254462    2.961951   -2.184952
     26          1           0        3.984448    0.666428   -2.009091
     27          1           0        3.233057    0.765595    2.226935
     28          1           0        2.464696    3.024418    2.041401
     29          1           0       -2.210180    2.844256    2.100125
     30          1           0       -2.949500    0.561108    2.183120
     31          1           0       -3.198194   -1.647637    2.015368
     32          1           0       -1.234461   -3.061836    1.944892
     33          1           0        0.880938   -2.633049    2.117775
     34          1           0        2.847941   -1.265796    2.232433
     35          1           0        3.116646   -1.295843   -2.060953
     36          1           0        1.205959   -2.749830   -2.169253
     37          1           0       -0.833371   -2.268231   -2.265498
     38          1           0       -2.761552   -0.851255   -2.187475
     39          1           0       -4.234376    0.813534   -1.914035
     40          1           0       -3.484401    3.124448   -1.997616
     41          1           0       -2.183904    4.120814   -0.074261
     42          1           0        2.166557    4.122184   -0.215417
 ---------------------------------------------------------------------
                    Distance matrix (angstroms):
                    1          2          3          4          5
     1  C    0.000000
     2  C    5.252564   0.000000
     3  C    6.029826   1.411743   0.000000
     4  C    6.688715   2.439476   1.392722   0.000000
     5  C    6.695665   2.847244   2.443080   1.412754   0.000000
     6  C    6.327460   2.438025   2.758328   2.380724   1.410168
     7  C    5.615531   1.409098   2.381711   2.757585   2.438589
     8  C    1.408330   5.529560   6.417744   6.894199   6.607243
     9  C    2.435937   6.248468   6.969553   7.195370   6.761023
    10  C    2.841542   6.699870   7.172882   7.307902   7.001990
    11  C    4.141072   7.014241   7.283693   7.134791   6.704741
    12  C    5.027803   7.334062   7.653512   7.334287   6.644248
    13  C    5.916080   7.186431   7.340217   6.781560   5.969887
    14  C    6.085683   6.698139   6.595499   5.916704   5.254826
    15  C    6.708179   6.097219   5.841642   4.931270   4.148538
    16  C    6.919689   5.808384   5.740050   4.805293   3.695065
    17  C    7.080877   4.910888   4.807118   3.795927   2.524836
    18  C    7.013951   4.152153   3.714148   2.537714   1.495367
    19  C    7.186907   4.845708   4.133137   2.946615   2.520511
    20  C    7.057037   5.773456   5.206209   4.179505   3.701805
    21  C    5.623026   6.746648   6.552590   6.036900   5.689192
    22  C    4.676856   6.897271   6.895056   6.645065   6.386709
    23  C    2.439844   6.753696   7.153983   7.468480   7.426933
    24  C    1.411824   6.092583   6.615684   7.177488   7.286373
    25  H    6.280532   2.171713   1.086807   2.133813   3.408717
    26  H    7.341702   3.401986   2.129625   1.086244   2.173349
    27  H    6.706704   3.392741   3.841810   3.380457   2.170674
    28  H    5.491931   2.166041   3.379743   3.841301   3.393998
    29  H    2.163405   5.322115   6.385004   6.898175   6.508471
    30  H    3.391379   6.554230   7.317158   7.411503   6.776840
    31  H    5.221772   7.830978   8.305812   8.048661   7.271283
    32  H    6.644378   7.588282   7.798241   7.156329   6.170504
    33  H    7.078623   6.431027   6.548927   5.708733   4.514435
    34  H    7.374956   4.999180   5.108530   4.209392   2.810007
    35  H    7.544630   4.870410   3.886471   2.703332   2.796245
    36  H    7.352745   6.397088   5.706383   4.750463   4.535256
    37  H    6.128494   6.768216   6.356260   5.782084   5.628143
    38  H    4.548384   7.013520   6.941923   6.825707   6.786776
    39  H    3.408249   7.458439   7.695249   7.950744   7.997414
    40  H    2.170387   6.387367   6.802131   7.467122   7.767105
    41  H    1.084867   4.902366   5.776267   6.632178   6.770671
    42  H    4.903465   1.084738   2.188300   3.427166   3.926401
                    6          7          8          9         10
     6  C    0.000000
     7  C    1.390238   0.000000
     8  C    6.092302   5.535575   0.000000
     9  C    6.399005   6.131114   1.390624   0.000000
    10  C    6.918121   6.762215   2.436509   1.408523   0.000000
    11  C    6.822269   6.964521   3.666692   2.478734   1.494119
    12  C    6.678174   7.014038   4.219715   2.934274   2.547238
    13  C    6.162755   6.760080   5.162294   4.033533   3.713382
    14  C    5.749937   6.434373   5.615592   4.670069   4.142688
    15  C    4.812227   5.731123   6.283329   5.567234   5.258954
    16  C    4.076296   5.135634   6.310888   5.700946   5.736506
    17  C    2.903842   4.131553   6.572801   6.242549   6.440956
    18  C    2.506466   3.686952   6.782102   6.625498   6.700775
    19  C    3.737856   4.723261   7.106631   6.823853   6.602903
    20  C    4.719081   5.639735   6.892206   6.357648   5.943559
    21  C    6.286800   6.771435   5.439069   4.549310   3.668579
    22  C    6.786517   7.018721   4.551994   3.609757   2.481971
    23  C    7.425035   7.096239   2.762951   2.386451   1.412288
    24  C    7.161368   6.586911   2.386745   2.763061   2.440586
    25  H    3.844575   3.378952   6.879310   7.487060   7.568564
    26  H    3.379118   3.843162   7.632280   7.843402   7.782831
    27  H    1.084813   2.120346   6.246072   6.441992   7.074896
    28  H    2.124414   1.085517   5.262208   5.959162   6.792518
    29  H    5.777877   5.143389   1.085514   2.126050   3.392589
    30  H    6.325421   6.201760   2.124801   1.085318   2.164255
    31  H    7.120412   7.396727   4.192722   2.864168   2.847820
    32  H    6.259210   6.972102   5.738395   4.636701   4.559605
    33  H    4.622802   5.617575   6.273073   5.554062   5.720724
    34  H    2.714011   3.961779   6.747390   6.504656   6.914595
    35  H    4.162112   5.007013   7.651603   7.475780   7.175136
    36  H    5.633861   6.451600   7.325775   6.748204   6.119677
    37  H    6.433363   6.942851   6.147434   5.403843   4.472902
    38  H    7.245206   7.342490   4.737210   3.992930   2.722641
    39  H    8.153511   7.892350   3.849685   3.382367   2.171226
    40  H    7.729804   7.079204   3.382418   3.849974   3.409431
    41  H    6.314120   5.398909   2.184405   3.423178   3.920886
    42  H    3.425834   2.186587   5.345871   6.265895   6.772833
                   11         12         13         14         15
    11  C    0.000000
    12  C    1.411708   0.000000
    13  C    2.439788   1.393270   0.000000
    14  C    2.846071   2.442814   1.412905   0.000000
    15  C    4.151990   3.717517   2.542961   1.494694   0.000000
    16  C    4.802410   4.110882   2.947035   2.510332   1.410614
    17  C    5.737850   5.203348   4.198002   3.693317   2.440996
    18  C    6.098654   5.871415   4.966694   4.146416   2.848153
    19  C    5.844362   5.781685   4.836577   3.699050   2.438409
    20  C    4.951750   4.839675   3.814106   2.531805   1.411505
    21  C    2.436911   2.759844   2.382525   1.409698   2.497050
    22  C    1.408650   2.383478   2.759359   2.438308   3.682032
    23  C    2.548557   3.838453   4.892961   5.032101   6.075094
    24  C    3.716391   4.893921   5.860278   5.921634   6.738460
    25  H    7.741087   8.267984   8.019645   7.190844   6.516959
    26  H    7.489863   7.743936   7.109889   6.074437   5.040156
    27  H    6.909541   6.550851   5.975866   5.750170   4.805823
    28  H    7.132288   7.113160   6.985247   6.872293   6.295506
    29  H    4.469189   4.761485   5.580567   6.107871   6.606771
    30  H    2.714680   2.606377   3.636379   4.530074   5.385901
    31  H    2.170993   1.087059   2.135963   3.409796   4.564635
    32  H    3.404381   2.132152   1.086527   2.173183   2.837687
    33  H    4.783108   3.820870   2.677062   2.776919   2.169699
    34  H    6.331823   5.683719   4.760697   4.519489   3.400256
    35  H    6.497458   6.611734   5.749575   4.525005   3.396516
    36  H    5.075528   5.155060   4.225790   2.823380   2.172891
    37  H    3.390984   3.842962   3.381585   2.168785   2.750769
    38  H    2.164689   3.380767   3.842831   3.393798   4.489220
    39  H    2.848607   4.238203   5.230896   5.228018   6.352383
    40  H    4.568582   5.833678   6.744905   6.656813   7.426953
    41  H    5.178278   6.028785   6.830382   6.921365   7.386893
    42  H    7.303626   7.748426   7.778593   7.372033   6.931647
                   16         17         18         19         20
    16  C    0.000000
    17  C    1.390947   0.000000
    18  C    2.438384   1.411222   0.000000
    19  C    2.755069   2.378825   1.411449   0.000000
    20  C    2.379122   2.756589   2.442278   1.391506   0.000000
    21  C    3.703485   4.671093   4.765943   4.055636   2.907995
    22  C    4.678602   5.586702   5.696521   5.140322   4.158053
    23  C    6.694388   7.272609   7.284948   7.060327   6.490768
    24  C    7.221716   7.558234   7.427480   7.334036   7.015817
    25  H    6.590225   5.738876   4.557802   4.719441   5.742470
    26  H    5.127949   4.222256   2.828300   2.769246   4.025963
    27  H    3.800375   2.638072   2.770684   4.140788   4.971975
    28  H    5.580367   4.666522   4.496989   5.605742   6.404232
    29  H    6.402126   6.517974   6.805786   7.337074   7.260134
    30  H    5.324127   5.931937   6.535190   6.859205   6.363618
    31  H    4.704727   5.755301   6.567381   6.645255   5.775936
    32  H    2.801298   4.084521   5.106836   5.168831   4.235349
    33  H    1.085630   2.124564   3.394977   3.839408   3.378250
    34  H    2.124701   1.085501   2.173093   3.378281   3.841230
    35  H    3.839784   3.378034   2.171391   1.085732   2.125501
    36  H    3.377796   3.841815   3.404108   2.128121   1.085991
    37  H    4.097001   4.897517   4.713771   3.734289   2.614751
    38  H    5.550740   6.330723   6.236867   5.573581   4.692792
    39  H    7.159417   7.818949   7.759768   7.345093   6.665225
    40  H    8.002252   8.276542   7.990461   7.797351   7.534805
    41  H    7.517558   7.495123   7.308787   7.566696   7.617814
    42  H    6.698894   5.891587   5.189714   5.812704   6.651759
                   21         22         23         24         25
    21  C    0.000000
    22  C    1.390055   0.000000
    23  C    4.225816   2.941376   0.000000
    24  C    5.173092   4.044365   1.393873   0.000000
    25  H    6.956839   7.235167   7.353300   6.731343   0.000000
    26  H    6.086331   6.809646   7.869963   7.658424   2.415209
    27  H    6.499051   7.025512   7.761500   7.598957   4.928406
    28  H    7.274033   7.391106   7.194773   6.627378   4.299964
    29  H    6.135846   5.399025   3.846135   3.382997   6.945362
    30  H    4.723599   3.984569   3.383190   3.846051   7.958219
    31  H    3.846438   3.380103   4.238124   5.230658   8.973726
    32  H    3.380217   3.845310   5.827462   6.739006   8.572750
    33  H    4.120323   4.937201   6.843446   7.439927   7.446550
    34  H    5.572726   6.374164   7.816839   8.020085   6.128001
    35  H    4.614388   5.646425   7.444766   7.621067   4.261828
    36  H    2.754862   4.033708   6.511252   7.108845   6.068035
    37  H    1.084800   2.120465   4.769026   5.598836   6.638650
    38  H    2.124730   1.085472   2.620142   3.657124   7.122708
    39  H    4.199087   2.870898   1.087127   2.137394   7.795626
    40  H    5.757639   4.655663   2.138358   1.087276   6.743425
    41  H    6.475479   5.620355   3.427083   2.186778   5.947588
    42  H    7.300332   7.262066   6.671042   5.812895   2.531550
                   26         27         28         29         30
    26  H    0.000000
    27  H    4.303294   0.000000
    28  H    4.927093   2.393132   0.000000
    29  H    7.746096   5.828014   4.678715   0.000000
    30  H    8.103417   6.186093   5.949916   2.401301   0.000000
    31  H    8.552281   6.872368   7.341464   4.600050   2.229023
    32  H    7.534650   5.889609   7.122890   5.988159   4.015449
    33  H    6.127752   4.134629   5.875462   6.289371   4.987902
    34  H    4.797464   2.067582   4.311532   6.518790   6.078678
    35  H    2.146224   4.759103   5.993246   7.926542   7.632729
    36  H    4.406413   5.982793   7.256443   7.822493   6.868282
    37  H    5.647065   6.776569   7.578836   6.862346   5.680965
    38  H    6.916914   7.618173   7.760019   5.687207   4.596977
    39  H    8.220690   8.538881   8.087710   4.933020   4.301314
    40  H    7.862932   8.278603   7.191343   4.300422   4.933091
    41  H    7.329728   6.774693   5.223753   2.521556   4.284088
    42  H    4.297004   4.285930   2.527292   5.113772   6.678943
                   31         32         33         34         35
    31  H    0.000000
    32  H    2.420986   0.000000
    33  H    4.197719   2.165331   0.000000
    34  H    6.062068   4.469278   2.398255   0.000000
    35  H    7.524451   6.172330   4.924254   4.301891   0.000000
    36  H    6.174338   4.793661   4.300917   4.926794   2.403442
    37  H    4.929842   4.303262   4.720702   5.898162   4.073084
    38  H    4.299857   4.929009   5.914195   7.153589   5.896344
    39  H    4.750920   6.237732   7.368912   8.466169   7.649090
    40  H    6.241695   7.673051   8.315131   8.790114   7.944609
    41  H    6.218550   7.521229   7.733883   7.723721   7.834727
    42  H    8.188271   8.236747   7.261527   5.957062   5.802042
                   36         37         38         39         40
    36  H    0.000000
    37  H    2.097634   0.000000
    38  H    4.398416   2.394116   0.000000
    39  H    6.508452   4.603003   2.239532   0.000000
    40  H    7.519048   6.015040   4.045339   2.431002   0.000000
    41  H    7.942664   6.888059   5.433307   4.304336   2.526526
    42  H    7.208661   7.351177   7.273951   7.403000   6.008747
                   41         42
    41  H    0.000000
    42  H    4.352751   0.000000
 Stoichiometry    C24H18
 Framework group  C1[X(C24H18)]
 Deg. of freedom   120
 Full point group                 C1      NOp   1
 Largest Abelian subgroup         C1      NOp   1
 Largest concise Abelian subgroup C1      NOp   1
                         Standard orientation:                         
 ---------------------------------------------------------------------
 Center     Atomic      Atomic             Coordinates (Angstroms)
 Number     Number       Type             X           Y           Z
 ---------------------------------------------------------------------
      1          6           0       -2.631836    3.135405   -0.001722
      2          6           0        2.619483    3.141564   -0.115924
      3          6           0        3.241773    2.493041   -1.204589
      4          6           0        3.666621    1.170750   -1.101032
      5          6           0        3.497127    0.441335    0.096924
      6          6           0        3.270555    1.226972    1.245842
      7          6           0        2.834073    2.542778    1.141440
      8          6           0       -2.699962    2.438756    1.220339
      9          6           0       -3.127456    1.116319    1.267703
     10          6           0       -3.504858    0.433038    0.095256
     11          6           0       -3.052794   -0.983971   -0.046577
     12          6           0       -2.690538   -1.778015    1.063011
     13          6           0       -1.560792   -2.592330    1.020980
     14          6           0       -0.746466   -2.649393   -0.132240
     15          6           0        0.745787   -2.660217   -0.047540
     16          6           0        1.374110   -2.380780    1.184108
     17          6           0        2.505469   -1.574265    1.249645
     18          6           0        3.044404   -0.983817    0.086688
     19          6           0        2.658465   -1.597937   -1.124137
     20          6           0        1.543865   -2.428489   -1.188470
     21          6           0       -1.350648   -2.179611   -1.316097
     22          6           0       -2.474268   -1.362326   -1.273952
     23          6           0       -3.800971    1.250325   -1.017810
     24          6           0       -3.371938    2.575660   -1.065762
     25          1           0        3.254462    2.961951   -2.184952
     26          1           0        3.984448    0.666428   -2.009091
     27          1           0        3.233057    0.765595    2.226935
     28          1           0        2.464696    3.024418    2.041401
     29          1           0       -2.210180    2.844256    2.100125
     30          1           0       -2.949500    0.561108    2.183120
     31          1           0       -3.198194   -1.647637    2.015368
     32          1           0       -1.234461   -3.061836    1.944892
     33          1           0        0.880938   -2.633049    2.117775
     34          1           0        2.847941   -1.265796    2.232433
     35          1           0        3.116646   -1.295843   -2.060953
     36          1           0        1.205959   -2.749830   -2.169253
     37          1           0       -0.833371   -2.268231   -2.265498
     38          1           0       -2.761552   -0.851255   -2.187475
     39          1           0       -4.234376    0.813534   -1.914035
     40          1           0       -3.484401    3.124448   -1.997616
     41          1           0       -2.183904    4.120814   -0.074261
     42          1           0        2.166557    4.122184   -0.215417
 ---------------------------------------------------------------------
 Rotational constants (GHZ):      0.3070945      0.1929836      0.1406567
 Standard basis: 6-31G(d) (6D, 7F)
 There are   396 symmetry adapted cartesian basis functions of A   symmetry.
 There are   396 symmetry adapted basis functions of A   symmetry.
   396 basis functions,   744 primitive gaussians,   396 cartesian basis functions
    81 alpha electrons       81 beta electrons
       nuclear repulsion energy      1795.2546509063 Hartrees.
 NAtoms=   42 NActive=   42 NUniq=   42 SFac= 1.00D+00 NAtFMM=   60 NAOKFM=F Big=F
 Integral buffers will be    131072 words long.
 Raffenetti 2 integral format.
 Two-electron integral symmetry is turned on.
 One-electron integrals computed using PRISM.
 NBasis=   396 RedAO= T EigKep=  4.25D-04  NBF=   396
 NBsUse=   396 1.00D-06 EigRej= -1.00D+00 NBFU=   396
 ExpMin= 1.61D-01 ExpMax= 3.05D+03 ExpMxC= 4.57D+02 IAcc=1 IRadAn=         1 AccDes= 0.00D+00
 Harris functional with IExCor=  402 and IRadAn=       1 diagonalized for initial guess.
 HarFok:  IExCor=  402 AccDes= 0.00D+00 IRadAn=         1 IDoV= 1 UseB2=F ITyADJ=14
 ICtDFT=  3500011 ScaDFX=  1.000000  1.000000  1.000000  1.000000
 FoFCou: FMM=F IPFlag=           0 FMFlag=      100000 FMFlg1=           0
         NFxFlg=           0 DoJE=T BraDBF=F KetDBF=T FulRan=T
         wScrn=  0.000000 ICntrl=     500 IOpCl=  0 I1Cent=   200000004 NGrid=           0
         NMat0=    1 NMatS0=      1 NMatT0=    0 NMatD0=    1 NMtDS0=    0 NMtDT0=    0
 Petite list used in FoFCou.
 Requested convergence on RMS density matrix=1.00D-08 within 128 cycles.
 Requested convergence on MAX density matrix=1.00D-06.
 Requested convergence on             energy=1.00D-06.
 No special actions if energy rises.
 Integral accuracy reduced to 1.0D-05 until final iterations.
 Initial convergence to 1.0D-05 achieved.  Increase integral accuracy.
 SCF Done:  E(RB3LYP) =  -925.293072577     A.U. after   14 cycles
            NFock= 14  Conv=0.88D-08     -V/T= 2.0100

 **********************************************************************

            Population analysis using the SCF density.

 **********************************************************************

 Orbital symmetries:
       Occupied  (A) (A) (A) (A) (A) (A) (A) (A) (A) (A) (A) (A)
                 (A) (A) (A) (A) (A) (A) (A) (A) (A) (A) (A) (A)
                 (A) (A) (A) (A) (A) (A) (A) (A) (A) (A) (A) (A)
                 (A) (A) (A) (A) (A) (A) (A) (A) (A) (A) (A) (A)
                 (A) (A) (A) (A) (A) (A) (A) (A) (A) (A) (A) (A)
                 (A) (A) (A) (A) (A) (A) (A) (A) (A) (A) (A) (A)
                 (A) (A) (A) (A) (A) (A) (A) (A) (A)
       Virtual   (A) (A) (A) (A) (A) (A) (A) (A) (A) (A) (A) (A)
                 (A) (A) (A) (A) (A) (A) (A) (A) (A) (A) (A) (A)
                 (A) (A) (A) (A) (A) (A) (A) (A) (A) (A) (A) (A)
                 (A) (A) (A) (A) (A) (A) (A) (A) (A) (A) (A) (A)
                 (A) (A) (A) (A) (A) (A) (A) (A) (A) (A) (A) (A)
                 (A) (A) (A) (A) (A) (A) (A) (A) (A) (A) (A) (A)
                 (A) (A) (A) (A) (A) (A) (A) (A) (A) (A) (A) (A)
                 (A) (A) (A) (A) (A) (A) (A) (A) (A) (A) (A) (A)
                 (A) (A) (A) (A) (A) (A) (A) (A) (A) (A) (A) (A)
                 (A) (A) (A) (A) (A) (A) (A) (A) (A) (A) (A) (A)
                 (A) (A) (A) (A) (A) (A) (A) (A) (A) (A) (A) (A)
                 (A) (A) (A) (A) (A) (A) (A) (A) (A) (A) (A) (A)
                 (A) (A) (A) (A) (A) (A) (A) (A) (A) (A) (A) (A)
                 (A) (A) (A) (A) (A) (A) (A) (A) (A) (A) (A) (A)
                 (A) (A) (A) (A) (A) (A) (A) (A) (A) (A) (A) (A)
                 (A) (A) (A) (A) (A) (A) (A) (A) (A) (A) (A) (A)
                 (A) (A) (A) (A) (A) (A) (A) (A) (A) (A) (A) (A)
                 (A) (A) (A) (A) (A) (A) (A) (A) (A) (A) (A) (A)
                 (A) (A) (A) (A) (A) (A) (A) (A) (A) (A) (A) (A)
                 (A) (A) (A) (A) (A) (A) (A) (A) (A) (A) (A) (A)
                 (A) (A) (A) (A) (A) (A) (A) (A) (A) (A) (A) (A)
                 (A) (A) (A) (A) (A) (A) (A) (A) (A) (A) (A) (A)
                 (A) (A) (A) (A) (A) (A) (A) (A) (A) (A) (A) (A)
                 (A) (A) (A) (A) (A) (A) (A) (A) (A) (A) (A) (A)
                 (A) (A) (A) (A) (A) (A) (A) (A) (A) (A) (A) (A)
                 (A) (A) (A) (A) (A) (A) (A) (A) (A) (A) (A) (A)
                 (A) (A) (A)
 The electronic state is 1-A.
 Alpha  occ. eigenvalues --  -10.20392 -10.20319 -10.20296 -10.20286 -10.20285
 Alpha  occ. eigenvalues --  -10.20193 -10.19162 -10.19121 -10.19104 -10.19081
 Alpha  occ. eigenvalues --  -10.19068 -10.19038 -10.19037 -10.19027 -10.19022
 Alpha  occ. eigenvalues --  -10.18964 -10.18954 -10.18954 -10.18905 -10.18895
 Alpha  occ. eigenvalues --  -10.18777 -10.18759 -10.18725 -10.18711  -0.87327
 Alpha  occ. eigenvalues --   -0.86356  -0.84924  -0.83652  -0.78816  -0.76093
 Alpha  occ. eigenvalues --   -0.75196  -0.74601  -0.73941  -0.73550  -0.72955
 Alpha  occ. eigenvalues --   -0.70024  -0.63493  -0.62438  -0.60792  -0.60748
 Alpha  occ. eigenvalues --   -0.58805  -0.58327  -0.57217  -0.56796  -0.53380
 Alpha  occ. eigenvalues --   -0.52155  -0.50207  -0.48343  -0.47947  -0.46814
 Alpha  occ. eigenvalues --   -0.44938  -0.44784  -0.44309  -0.43152  -0.42907
 Alpha  occ. eigenvalues --   -0.42627  -0.42041  -0.41957  -0.41429  -0.41192
 Alpha  occ. eigenvalues --   -0.40632  -0.39951  -0.39500  -0.37884  -0.37444
 Alpha  occ. eigenvalues --   -0.35777  -0.34390  -0.34170  -0.33806  -0.33076
 Alpha  occ. eigenvalues --   -0.32915  -0.32757  -0.31816  -0.28863  -0.25666
 Alpha  occ. eigenvalues --   -0.25546  -0.25004  -0.24399  -0.23939  -0.21900
 Alpha  occ. eigenvalues --   -0.18410
 Alpha virt. eigenvalues --   -0.05925  -0.02533  -0.01779  -0.00378   0.00796
 Alpha virt. eigenvalues --    0.01084   0.02414   0.03140   0.08369   0.08421
 Alpha virt. eigenvalues --    0.08890   0.10991   0.11202   0.11327   0.12408
 Alpha virt. eigenvalues --    0.13210   0.13577   0.13790   0.14082   0.14343
 Alpha virt. eigenvalues --    0.16273   0.16442   0.17779   0.18005   0.19236
 Alpha virt. eigenvalues --    0.20777   0.21456   0.23243   0.24238   0.25371
 Alpha virt. eigenvalues --    0.26519   0.26798   0.26908   0.27471   0.28159
 Alpha virt. eigenvalues --    0.28396   0.28741   0.30059   0.30192   0.31528
 Alpha virt. eigenvalues --    0.33785   0.34671   0.36144   0.36620   0.36946
 Alpha virt. eigenvalues --    0.38169   0.39210   0.39574   0.43962   0.45043
 Alpha virt. eigenvalues --    0.48680   0.49438   0.49774   0.51429   0.52356
 Alpha virt. eigenvalues --    0.52662   0.53104   0.53787   0.54301   0.54430
 Alpha virt. eigenvalues --    0.55036   0.55134   0.55743   0.56492   0.56899
 Alpha virt. eigenvalues --    0.57051   0.57225   0.57935   0.58037   0.58356
 Alpha virt. eigenvalues --    0.58899   0.59201   0.59608   0.59852   0.59961
 Alpha virt. eigenvalues --    0.60126   0.60335   0.60630   0.60845   0.61648
 Alpha virt. eigenvalues --    0.61893   0.62325   0.62509   0.62646   0.62766
 Alpha virt. eigenvalues --    0.62979   0.63537   0.64064   0.65085   0.65435
 Alpha virt. eigenvalues --    0.66319   0.66529   0.67579   0.68268   0.69027
 Alpha virt. eigenvalues --    0.69497   0.69851   0.70653   0.71559   0.73514
 Alpha virt. eigenvalues --    0.75189   0.77259   0.79869   0.81817   0.81910
 Alpha virt. eigenvalues --    0.82614   0.82877   0.83154   0.83478   0.84035
 Alpha virt. eigenvalues --    0.84410   0.84621   0.85030   0.86613   0.87836
 Alpha virt. eigenvalues --    0.88369   0.89130   0.89358   0.90440   0.91049
 Alpha virt. eigenvalues --    0.91834   0.92097   0.92377   0.92719   0.92942
 Alpha virt. eigenvalues --    0.93118   0.93585   0.93752   0.94366   0.94567
 Alpha virt. eigenvalues --    0.97040   0.97475   0.98690   0.99496   1.00041
 Alpha virt. eigenvalues --    1.01574   1.02098   1.02602   1.03038   1.03491
 Alpha virt. eigenvalues --    1.05081   1.05877   1.06513   1.07833   1.08495
 Alpha virt. eigenvalues --    1.12171   1.12535   1.13684   1.14825   1.15816
 Alpha virt. eigenvalues --    1.17165   1.18061   1.19112   1.20035   1.21261
 Alpha virt. eigenvalues --    1.21687   1.23874   1.26014   1.28129   1.30034
 Alpha virt. eigenvalues --    1.32241   1.33295   1.33886   1.34841   1.37243
 Alpha virt. eigenvalues --    1.37769   1.39506   1.39895   1.41592   1.42588
 Alpha virt. eigenvalues --    1.44318   1.45227   1.46823   1.48450   1.49495
 Alpha virt. eigenvalues --    1.49752   1.50561   1.51135   1.51736   1.52408
 Alpha virt. eigenvalues --    1.53163   1.53931   1.57572   1.59603   1.60286
 Alpha virt. eigenvalues --    1.61673   1.62548   1.63027   1.64130   1.66147
 Alpha virt. eigenvalues --    1.67600   1.73508   1.75291   1.78107   1.79563
 Alpha virt. eigenvalues --    1.80165   1.80956   1.82622   1.84077   1.85846
 Alpha virt. eigenvalues --    1.86097   1.86878   1.87875   1.89224   1.89709
 Alpha virt. eigenvalues --    1.90361   1.93982   1.98119   1.98373   1.98951
 Alpha virt. eigenvalues --    1.99530   1.99960   2.00464   2.01086   2.01349
 Alpha virt. eigenvalues --    2.01538   2.02826   2.03066   2.04421   2.06278
 Alpha virt. eigenvalues --    2.08470   2.09070   2.10006   2.10252   2.10565
 Alpha virt. eigenvalues --    2.11712   2.14739   2.16296   2.17298   2.18086
 Alpha virt. eigenvalues --    2.18992   2.20151   2.20676   2.21705   2.22089
 Alpha virt. eigenvalues --    2.23029   2.24160   2.24835   2.25528   2.28442
 Alpha virt. eigenvalues --    2.29465   2.29537   2.33912   2.36117   2.36935
 Alpha virt. eigenvalues --    2.38057   2.38312   2.40381   2.42134   2.47135
 Alpha virt. eigenvalues --    2.48356   2.50330   2.52635   2.53387   2.54278
 Alpha virt. eigenvalues --    2.56127   2.57198   2.57522   2.58917   2.59501
 Alpha virt. eigenvalues --    2.60787   2.62443   2.63083   2.64004   2.66409
 Alpha virt. eigenvalues --    2.66640   2.69968   2.70640   2.72101   2.73746
 Alpha virt. eigenvalues --    2.74213   2.75193   2.76138   2.76750   2.77194
 Alpha virt. eigenvalues --    2.77837   2.77881   2.81387   2.82238   2.86632
 Alpha virt. eigenvalues --    2.87166   2.89828   2.94308   2.96065   3.07703
 Alpha virt. eigenvalues --    3.15589   3.22198   3.23375   3.30113   3.37293
 Alpha virt. eigenvalues --    3.43275   4.06394   4.07178   4.08023   4.09698
 Alpha virt. eigenvalues --    4.10050   4.10961   4.12100   4.12936   4.14083
 Alpha virt. eigenvalues --    4.16140   4.21773   4.27095   4.28046   4.32066
 Alpha virt. eigenvalues --    4.34669   4.37679   4.39238   4.40494   4.43765
 Alpha virt. eigenvalues --    4.46874   4.56426   4.64277   4.71915   4.79277
          Condensed to atoms (all electrons):
               1          2          3          4          5          6
     1  C    4.876766  -0.000018   0.000000   0.000000  -0.000000   0.000001
     2  C   -0.000018   4.879848   0.534027  -0.036312  -0.031578  -0.037104
     3  C    0.000000   0.534027   4.875344   0.526619  -0.024603  -0.044015
     4  C    0.000000  -0.036312   0.526619   5.038169   0.514880  -0.072143
     5  C   -0.000000  -0.031578  -0.024603   0.514880   4.750391   0.527031
     6  C    0.000001  -0.037104  -0.044015  -0.072143   0.527031   5.020942
     7  C   -0.000000   0.534226  -0.021422  -0.046131  -0.026130   0.526094
     8  C    0.536102   0.000001   0.000000  -0.000000  -0.000000  -0.000000
     9  C   -0.036342   0.000001   0.000000  -0.000000  -0.000000  -0.000001
    10  C   -0.032085  -0.000000  -0.000000  -0.000000   0.000000   0.000000
    11  C    0.000291  -0.000000  -0.000000   0.000000   0.000000   0.000000
    12  C    0.000033  -0.000000  -0.000000   0.000000  -0.000000   0.000000
    13  C    0.000001   0.000000   0.000000  -0.000000  -0.000003  -0.000002
    14  C   -0.000003   0.000000  -0.000000  -0.000004   0.000027  -0.000005
    15  C    0.000000  -0.000004  -0.000001   0.000114   0.000725   0.000150
    16  C    0.000000  -0.000000   0.000004  -0.000011   0.003926   0.000830
    17  C   -0.000000   0.000048  -0.000014   0.007311  -0.047790  -0.024339
    18  C   -0.000000   0.000370   0.004881  -0.052018   0.373146  -0.051438
    19  C   -0.000000   0.000047   0.000680  -0.022691  -0.048001   0.005288
    20  C    0.000000  -0.000003  -0.000059   0.000503   0.004893   0.000070
    21  C   -0.000008   0.000000   0.000000  -0.000004  -0.000006  -0.000002
    22  C    0.000116  -0.000000   0.000000   0.000000  -0.000000   0.000000
    23  C   -0.036283   0.000000   0.000000  -0.000000  -0.000000  -0.000000
    24  C    0.534316  -0.000000  -0.000000   0.000000  -0.000000   0.000000
    25  H   -0.000000  -0.044550   0.360132  -0.041725   0.004143   0.000572
    26  H    0.000000   0.004794  -0.045311   0.349241  -0.035919   0.005886
    27  H    0.000000   0.004939   0.000366   0.006159  -0.036411   0.348544
    28  H    0.000000  -0.044663   0.004759   0.000623   0.004330  -0.042154
    29  H   -0.044570   0.000001   0.000000  -0.000000   0.000000  -0.000000
    30  H    0.004872   0.000000   0.000000  -0.000000  -0.000000  -0.000000
    31  H   -0.000005  -0.000000  -0.000000   0.000000   0.000000   0.000000
    32  H   -0.000000   0.000000   0.000000  -0.000000  -0.000000  -0.000000
    33  H    0.000000  -0.000000  -0.000000   0.000004  -0.000118   0.000003
    34  H   -0.000000  -0.000005   0.000002  -0.000257  -0.011083   0.003015
    35  H   -0.000000  -0.000001   0.000268   0.006359  -0.012233  -0.000226
    36  H    0.000000  -0.000000  -0.000001  -0.000010  -0.000132   0.000004
    37  H   -0.000000  -0.000000   0.000000   0.000000  -0.000001  -0.000000
    38  H    0.000009   0.000000   0.000000  -0.000000  -0.000000   0.000000
    39  H    0.004785   0.000000   0.000000  -0.000000  -0.000000  -0.000000
    40  H   -0.044411  -0.000000  -0.000000   0.000000  -0.000000   0.000000
    41  H    0.359727   0.000008   0.000000  -0.000000  -0.000000  -0.000000
    42  H    0.000009   0.359576  -0.042386   0.004974   0.000605   0.005086
               7          8          9         10         11         12
     1  C   -0.000000   0.536102  -0.036342  -0.032085   0.000291   0.000033
     2  C    0.534226   0.000001   0.000001  -0.000000  -0.000000  -0.000000
     3  C   -0.021422   0.000000   0.000000  -0.000000  -0.000000  -0.000000
     4  C   -0.046131  -0.000000  -0.000000  -0.000000   0.000000   0.000000
     5  C   -0.026130  -0.000000  -0.000000   0.000000   0.000000  -0.000000
     6  C    0.526094  -0.000000  -0.000001   0.000000   0.000000   0.000000
     7  C    4.879563  -0.000001  -0.000000   0.000000  -0.000000   0.000000
     8  C   -0.000001   4.882138   0.523536  -0.027429   0.006628   0.000302
     9  C   -0.000000   0.523536   4.999670   0.535752  -0.053469  -0.022197
    10  C    0.000000  -0.027429   0.535752   4.765644   0.372233  -0.048311
    11  C   -0.000000   0.006628  -0.053469   0.372233   4.784068   0.500769
    12  C    0.000000   0.000302  -0.022197  -0.048311   0.500769   5.038195
    13  C    0.000000  -0.000041   0.000906   0.003138  -0.029446   0.517846
    14  C   -0.000000  -0.000012   0.000261   0.000572  -0.036247  -0.030406
    15  C   -0.000004  -0.000000  -0.000010   0.000031   0.000749   0.003799
    16  C   -0.000074   0.000000  -0.000011  -0.000006   0.000147   0.000729
    17  C    0.000532   0.000000   0.000000  -0.000000  -0.000007  -0.000051
    18  C    0.005695  -0.000000   0.000001   0.000000  -0.000005  -0.000000
    19  C    0.000062   0.000000   0.000000  -0.000000   0.000000   0.000004
    20  C    0.000005   0.000000  -0.000001  -0.000001   0.000104  -0.000056
    21  C    0.000000   0.000001   0.000245   0.005845  -0.034345  -0.039494
    22  C   -0.000000   0.000233   0.000445  -0.049592   0.535209  -0.064595
    23  C   -0.000000  -0.047071  -0.064126   0.501551  -0.050604   0.007925
    24  C    0.000000  -0.021284  -0.043673  -0.022352   0.003756  -0.000084
    25  H    0.004820   0.000000   0.000000   0.000000  -0.000000  -0.000000
    26  H    0.000347  -0.000000  -0.000000   0.000000   0.000000   0.000000
    27  H   -0.045372  -0.000000  -0.000000  -0.000000   0.000000   0.000000
    28  H    0.360191   0.000001   0.000000   0.000000  -0.000000  -0.000000
    29  H    0.000003   0.359812  -0.042085   0.004539  -0.000171  -0.000020
    30  H   -0.000000  -0.044445   0.349199  -0.038695  -0.014453   0.010144
    31  H   -0.000000   0.000172   0.001126  -0.007343  -0.035359   0.350225
    32  H    0.000000  -0.000001   0.000011  -0.000107   0.003568  -0.041138
    33  H   -0.000001  -0.000000  -0.000000  -0.000001  -0.000001   0.000284
    34  H    0.000323   0.000000   0.000000  -0.000000  -0.000000  -0.000001
    35  H   -0.000006   0.000000   0.000000   0.000000  -0.000000  -0.000000
    36  H   -0.000000   0.000000  -0.000000  -0.000000  -0.000001   0.000004
    37  H    0.000000   0.000000   0.000002  -0.000161   0.004448   0.000426
    38  H   -0.000000  -0.000031  -0.000162  -0.013426  -0.036792   0.006335
    39  H    0.000000   0.000296   0.005771  -0.038497  -0.007858  -0.000187
    40  H    0.000000   0.004842   0.000549   0.004002  -0.000120   0.000003
    41  H   -0.000000  -0.042793   0.005148   0.000583   0.000005  -0.000001
    42  H   -0.042581  -0.000000  -0.000000  -0.000000   0.000000   0.000000
              13         14         15         16         17         18
     1  C    0.000001  -0.000003   0.000000   0.000000  -0.000000  -0.000000
     2  C    0.000000   0.000000  -0.000004  -0.000000   0.000048   0.000370
     3  C    0.000000  -0.000000  -0.000001   0.000004  -0.000014   0.004881
     4  C   -0.000000  -0.000004   0.000114  -0.000011   0.007311  -0.052018
     5  C   -0.000003   0.000027   0.000725   0.003926  -0.047790   0.373146
     6  C   -0.000002  -0.000005   0.000150   0.000830  -0.024339  -0.051438
     7  C    0.000000  -0.000000  -0.000004  -0.000074   0.000532   0.005695
     8  C   -0.000041  -0.000012  -0.000000   0.000000   0.000000  -0.000000
     9  C    0.000906   0.000261  -0.000010  -0.000011   0.000000   0.000001
    10  C    0.003138   0.000572   0.000031  -0.000006  -0.000000   0.000000
    11  C   -0.029446  -0.036247   0.000749   0.000147  -0.000007  -0.000005
    12  C    0.517846  -0.030406   0.003799   0.000729  -0.000051  -0.000000
    13  C    5.037633   0.508785  -0.049673  -0.021525   0.000348   0.000098
    14  C    0.508785   4.761477   0.378101  -0.049451   0.005136   0.000778
    15  C   -0.049673   0.378101   4.764351   0.528628  -0.032998  -0.036351
    16  C   -0.021525  -0.049451   0.528628   5.002447   0.525310  -0.031916
    17  C    0.000348   0.005136  -0.032998   0.525310   5.030190   0.513400
    18  C    0.000098   0.000778  -0.036351  -0.031916   0.513400   4.773979
    19  C   -0.000051   0.003518  -0.030597  -0.037095  -0.072834   0.525444
    20  C    0.007719  -0.048843   0.508557  -0.070807  -0.039825  -0.033218
    21  C   -0.070432   0.529148  -0.049357   0.004234   0.000081   0.000161
    22  C   -0.038663  -0.032247   0.005119   0.000072   0.000009  -0.000007
    23  C   -0.000099   0.000089  -0.000001  -0.000000   0.000000   0.000000
    24  C    0.000002   0.000000   0.000000   0.000000  -0.000000  -0.000000
    25  H    0.000000  -0.000000  -0.000000  -0.000000   0.000003  -0.000134
    26  H   -0.000000  -0.000000   0.000000   0.000002  -0.000235  -0.011083
    27  H    0.000000  -0.000001  -0.000001   0.000458   0.006283  -0.014115
    28  H    0.000000  -0.000000  -0.000000  -0.000001  -0.000007  -0.000149
    29  H   -0.000001  -0.000000  -0.000000  -0.000000   0.000000   0.000000
    30  H    0.000366   0.000020  -0.000003   0.000001  -0.000000   0.000000
    31  H   -0.041018   0.003586  -0.000117   0.000006  -0.000001  -0.000000
    32  H    0.348210  -0.033346  -0.009610   0.002488   0.000224  -0.000001
    33  H    0.007872  -0.013017  -0.034487   0.347997  -0.042346   0.003908
    34  H   -0.000017  -0.000144   0.004065  -0.042291   0.348718  -0.033352
    35  H    0.000003  -0.000115   0.003776   0.000436   0.006113  -0.033573
    36  H   -0.000252  -0.010099  -0.033523   0.005797   0.000423   0.003918
    37  H    0.006195  -0.035471  -0.014109  -0.000232  -0.000009  -0.000005
    38  H    0.000387   0.004236  -0.000145   0.000003   0.000000  -0.000000
    39  H    0.000005   0.000000  -0.000000  -0.000000   0.000000   0.000000
    40  H   -0.000000  -0.000000   0.000000   0.000000  -0.000000  -0.000000
    41  H    0.000000   0.000000  -0.000000  -0.000000   0.000000   0.000000
    42  H   -0.000000  -0.000000   0.000000   0.000000  -0.000001   0.000005
              19         20         21         22         23         24
     1  C   -0.000000   0.000000  -0.000008   0.000116  -0.036283   0.534316
     2  C    0.000047  -0.000003   0.000000  -0.000000   0.000000  -0.000000
     3  C    0.000680  -0.000059   0.000000   0.000000   0.000000  -0.000000
     4  C   -0.022691   0.000503  -0.000004   0.000000  -0.000000   0.000000
     5  C   -0.048001   0.004893  -0.000006  -0.000000  -0.000000  -0.000000
     6  C    0.005288   0.000070  -0.000002   0.000000  -0.000000   0.000000
     7  C    0.000062   0.000005   0.000000  -0.000000  -0.000000   0.000000
     8  C    0.000000   0.000000   0.000001   0.000233  -0.047071  -0.021284
     9  C    0.000000  -0.000001   0.000245   0.000445  -0.064126  -0.043673
    10  C   -0.000000  -0.000001   0.005845  -0.049592   0.501551  -0.022352
    11  C    0.000000   0.000104  -0.034345   0.535209  -0.050604   0.003756
    12  C    0.000004  -0.000056  -0.039494  -0.064595   0.007925  -0.000084
    13  C   -0.000051   0.007719  -0.070432  -0.038663  -0.000099   0.000002
    14  C    0.003518  -0.048843   0.529148  -0.032247   0.000089   0.000000
    15  C   -0.030597   0.508557  -0.049357   0.005119  -0.000001   0.000000
    16  C   -0.037095  -0.070807   0.004234   0.000072  -0.000000   0.000000
    17  C   -0.072834  -0.039825   0.000081   0.000009   0.000000  -0.000000
    18  C    0.525444  -0.033218   0.000161  -0.000007   0.000000  -0.000000
    19  C    5.009215   0.524018   0.000848  -0.000064   0.000000   0.000000
    20  C    0.524018   5.035193  -0.023291   0.000453  -0.000001   0.000000
    21  C    0.000848  -0.023291   5.007917   0.523437   0.000392  -0.000044
    22  C   -0.000064   0.000453   0.523437   4.990021  -0.022437   0.000956
    23  C    0.000000  -0.000001   0.000392  -0.022437   5.047889   0.520939
    24  C    0.000000   0.000000  -0.000044   0.000956   0.520939   4.880322
    25  H    0.000004  -0.000001   0.000000   0.000000   0.000000  -0.000000
    26  H    0.003058   0.000284  -0.000000   0.000000  -0.000000   0.000000
    27  H   -0.000262  -0.000001  -0.000000   0.000000  -0.000000   0.000000
    28  H    0.000004   0.000000   0.000000  -0.000000  -0.000000   0.000000
    29  H    0.000000  -0.000000   0.000000   0.000002   0.000640   0.004721
    30  H    0.000000   0.000000  -0.000021  -0.000228   0.006344   0.000336
    31  H   -0.000000   0.000003   0.000434   0.005681  -0.000212   0.000006
    32  H    0.000003  -0.000237   0.005777   0.000449   0.000003  -0.000000
    33  H    0.000404   0.006262  -0.000226  -0.000009   0.000000   0.000000
    34  H    0.005843   0.000440   0.000004   0.000000   0.000000  -0.000000
    35  H    0.348002  -0.041939   0.000006  -0.000001   0.000000  -0.000000
    36  H   -0.042064   0.349039   0.002145   0.000304   0.000000   0.000000
    37  H    0.000429   0.008512   0.347859  -0.042339  -0.000027  -0.000001
    38  H   -0.000001  -0.000021  -0.041687   0.348549   0.010603   0.000282
    39  H    0.000000  -0.000000   0.000212   0.000957   0.350821  -0.044577
    40  H   -0.000000   0.000000  -0.000001   0.000013  -0.041167   0.359735
    41  H    0.000000  -0.000000   0.000000  -0.000003   0.004953  -0.042455
    42  H   -0.000002   0.000000  -0.000000   0.000000  -0.000000   0.000000
              25         26         27         28         29         30
     1  C   -0.000000   0.000000   0.000000   0.000000  -0.044570   0.004872
     2  C   -0.044550   0.004794   0.004939  -0.044663   0.000001   0.000000
     3  C    0.360132  -0.045311   0.000366   0.004759   0.000000   0.000000
     4  C   -0.041725   0.349241   0.006159   0.000623  -0.000000  -0.000000
     5  C    0.004143  -0.035919  -0.036411   0.004330   0.000000  -0.000000
     6  C    0.000572   0.005886   0.348544  -0.042154  -0.000000  -0.000000
     7  C    0.004820   0.000347  -0.045372   0.360191   0.000003  -0.000000
     8  C    0.000000  -0.000000  -0.000000   0.000001   0.359812  -0.044445
     9  C    0.000000  -0.000000  -0.000000   0.000000  -0.042085   0.349199
    10  C    0.000000   0.000000  -0.000000   0.000000   0.004539  -0.038695
    11  C   -0.000000   0.000000   0.000000  -0.000000  -0.000171  -0.014453
    12  C   -0.000000   0.000000   0.000000  -0.000000  -0.000020   0.010144
    13  C    0.000000  -0.000000   0.000000   0.000000  -0.000001   0.000366
    14  C   -0.000000  -0.000000  -0.000001  -0.000000  -0.000000   0.000020
    15  C   -0.000000   0.000000  -0.000001  -0.000000  -0.000000  -0.000003
    16  C   -0.000000   0.000002   0.000458  -0.000001  -0.000000   0.000001
    17  C    0.000003  -0.000235   0.006283  -0.000007   0.000000  -0.000000
    18  C   -0.000134  -0.011083  -0.014115  -0.000149   0.000000   0.000000
    19  C    0.000004   0.003058  -0.000262   0.000004   0.000000   0.000000
    20  C   -0.000001   0.000284  -0.000001   0.000000  -0.000000   0.000000
    21  C    0.000000  -0.000000  -0.000000   0.000000   0.000000  -0.000021
    22  C    0.000000   0.000000   0.000000  -0.000000   0.000002  -0.000228
    23  C    0.000000  -0.000000  -0.000000  -0.000000   0.000640   0.006344
    24  C   -0.000000   0.000000   0.000000   0.000000   0.004721   0.000336
    25  H    0.600099  -0.007142   0.000014  -0.000209  -0.000000   0.000000
    26  H   -0.007142   0.601912  -0.000195   0.000015  -0.000000  -0.000000
    27  H    0.000014  -0.000195   0.605990  -0.007499  -0.000000   0.000000
    28  H   -0.000209   0.000015  -0.007499   0.601746   0.000005  -0.000000
    29  H   -0.000000  -0.000000  -0.000000   0.000005   0.601146  -0.007371
    30  H    0.000000  -0.000000   0.000000  -0.000000  -0.007371   0.602495
    31  H    0.000000   0.000000   0.000000   0.000000   0.000006   0.002762
    32  H    0.000000  -0.000000   0.000000   0.000000   0.000000   0.000020
    33  H    0.000000   0.000000   0.000021   0.000000  -0.000000   0.000002
    34  H    0.000000   0.000003   0.003453   0.000012   0.000000  -0.000000
    35  H    0.000012   0.003519   0.000001   0.000000   0.000000   0.000000
    36  H    0.000000   0.000009   0.000000   0.000000   0.000000  -0.000000
    37  H   -0.000000   0.000000  -0.000000   0.000000   0.000000   0.000000
    38  H    0.000000  -0.000000   0.000000   0.000000   0.000000  -0.000006
    39  H    0.000000  -0.000000  -0.000000   0.000000   0.000015  -0.000191
    40  H   -0.000000   0.000000   0.000000  -0.000000  -0.000207   0.000014
    41  H   -0.000000  -0.000000  -0.000000  -0.000000  -0.004784  -0.000156
    42  H   -0.004655  -0.000152  -0.000157  -0.004713  -0.000000  -0.000000
              31         32         33         34         35         36
     1  C   -0.000005  -0.000000   0.000000  -0.000000  -0.000000   0.000000
     2  C   -0.000000   0.000000  -0.000000  -0.000005  -0.000001  -0.000000
     3  C   -0.000000   0.000000  -0.000000   0.000002   0.000268  -0.000001
     4  C    0.000000  -0.000000   0.000004  -0.000257   0.006359  -0.000010
     5  C    0.000000  -0.000000  -0.000118  -0.011083  -0.012233  -0.000132
     6  C    0.000000  -0.000000   0.000003   0.003015  -0.000226   0.000004
     7  C   -0.000000   0.000000  -0.000001   0.000323  -0.000006  -0.000000
     8  C    0.000172  -0.000001  -0.000000   0.000000   0.000000   0.000000
     9  C    0.001126   0.000011  -0.000000   0.000000   0.000000  -0.000000
    10  C   -0.007343  -0.000107  -0.000001  -0.000000   0.000000  -0.000000
    11  C   -0.035359   0.003568  -0.000001  -0.000000  -0.000000  -0.000001
    12  C    0.350225  -0.041138   0.000284  -0.000001  -0.000000   0.000004
    13  C   -0.041018   0.348210   0.007872  -0.000017   0.000003  -0.000252
    14  C    0.003586  -0.033346  -0.013017  -0.000144  -0.000115  -0.010099
    15  C   -0.000117  -0.009610  -0.034487   0.004065   0.003776  -0.033523
    16  C    0.000006   0.002488   0.347997  -0.042291   0.000436   0.005797
    17  C   -0.000001   0.000224  -0.042346   0.348718   0.006113   0.000423
    18  C   -0.000000  -0.000001   0.003908  -0.033352  -0.033573   0.003918
    19  C   -0.000000   0.000003   0.000404   0.005843   0.348002  -0.042064
    20  C    0.000003  -0.000237   0.006262   0.000440  -0.041939   0.349039
    21  C    0.000434   0.005777  -0.000226   0.000004   0.000006   0.002145
    22  C    0.005681   0.000449  -0.000009   0.000000  -0.000001   0.000304
    23  C   -0.000212   0.000003   0.000000   0.000000   0.000000   0.000000
    24  C    0.000006  -0.000000   0.000000  -0.000000  -0.000000   0.000000
    25  H    0.000000   0.000000   0.000000   0.000000   0.000012   0.000000
    26  H    0.000000  -0.000000   0.000000   0.000003   0.003519   0.000009
    27  H    0.000000   0.000000   0.000021   0.003453   0.000001   0.000000
    28  H    0.000000   0.000000   0.000000   0.000012   0.000000   0.000000
    29  H    0.000006   0.000000  -0.000000   0.000000   0.000000   0.000000
    30  H    0.002762   0.000020   0.000002  -0.000000   0.000000  -0.000000
    31  H    0.591067  -0.006708   0.000009   0.000000   0.000000   0.000000
    32  H   -0.006708   0.592689   0.003484   0.000006   0.000000   0.000003
    33  H    0.000009   0.003484   0.597717  -0.007116   0.000014  -0.000201
    34  H    0.000000   0.000006  -0.007116   0.594100  -0.000202   0.000014
    35  H    0.000000   0.000000   0.000014  -0.000202   0.595162  -0.006983
    36  H    0.000000   0.000003  -0.000201   0.000014  -0.006983   0.592562
    37  H    0.000014  -0.000199  -0.000001   0.000000   0.000019   0.003551
    38  H   -0.000199   0.000014   0.000000   0.000000   0.000000   0.000008
    39  H    0.000001   0.000000  -0.000000   0.000000   0.000000   0.000000
    40  H    0.000000   0.000000   0.000000   0.000000   0.000000   0.000000
    41  H   -0.000000  -0.000000   0.000000   0.000000   0.000000  -0.000000
    42  H    0.000000  -0.000000  -0.000000  -0.000000  -0.000000  -0.000000
              37         38         39         40         41         42
     1  C   -0.000000   0.000009   0.004785  -0.044411   0.359727   0.000009
     2  C   -0.000000   0.000000   0.000000  -0.000000   0.000008   0.359576
     3  C    0.000000   0.000000   0.000000  -0.000000   0.000000  -0.042386
     4  C    0.000000  -0.000000  -0.000000   0.000000  -0.000000   0.004974
     5  C   -0.000001  -0.000000  -0.000000  -0.000000  -0.000000   0.000605
     6  C   -0.000000   0.000000  -0.000000   0.000000  -0.000000   0.005086
     7  C    0.000000  -0.000000   0.000000   0.000000  -0.000000  -0.042581
     8  C    0.000000  -0.000031   0.000296   0.004842  -0.042793  -0.000000
     9  C    0.000002  -0.000162   0.005771   0.000549   0.005148  -0.000000
    10  C   -0.000161  -0.013426  -0.038497   0.004002   0.000583  -0.000000
    11  C    0.004448  -0.036792  -0.007858  -0.000120   0.000005   0.000000
    12  C    0.000426   0.006335  -0.000187   0.000003  -0.000001   0.000000
    13  C    0.006195   0.000387   0.000005  -0.000000   0.000000  -0.000000
    14  C   -0.035471   0.004236   0.000000  -0.000000   0.000000  -0.000000
    15  C   -0.014109  -0.000145  -0.000000   0.000000  -0.000000   0.000000
    16  C   -0.000232   0.000003  -0.000000   0.000000  -0.000000   0.000000
    17  C   -0.000009   0.000000   0.000000  -0.000000   0.000000  -0.000001
    18  C   -0.000005  -0.000000   0.000000  -0.000000   0.000000   0.000005
    19  C    0.000429  -0.000001   0.000000  -0.000000   0.000000  -0.000002
    20  C    0.008512  -0.000021  -0.000000   0.000000  -0.000000   0.000000
    21  C    0.347859  -0.041687   0.000212  -0.000001   0.000000  -0.000000
    22  C   -0.042339   0.348549   0.000957   0.000013  -0.000003   0.000000
    23  C   -0.000027   0.010603   0.350821  -0.041167   0.004953  -0.000000
    24  C   -0.000001   0.000282  -0.044577   0.359735  -0.042455   0.000000
    25  H   -0.000000   0.000000   0.000000  -0.000000  -0.000000  -0.004655
    26  H    0.000000  -0.000000  -0.000000   0.000000  -0.000000  -0.000152
    27  H   -0.000000   0.000000  -0.000000   0.000000  -0.000000  -0.000157
    28  H    0.000000   0.000000   0.000000  -0.000000  -0.000000  -0.004713
    29  H    0.000000   0.000000   0.000015  -0.000207  -0.004784  -0.000000
    30  H    0.000000  -0.000006  -0.000191   0.000014  -0.000156  -0.000000
    31  H    0.000014  -0.000199   0.000001   0.000000  -0.000000   0.000000
    32  H   -0.000199   0.000014   0.000000   0.000000  -0.000000  -0.000000
    33  H   -0.000001   0.000000  -0.000000   0.000000   0.000000  -0.000000
    34  H    0.000000   0.000000   0.000000   0.000000   0.000000  -0.000000
    35  H    0.000019   0.000000   0.000000   0.000000   0.000000  -0.000000
    36  H    0.003551   0.000008   0.000000   0.000000  -0.000000  -0.000000
    37  H    0.598570  -0.007304   0.000004   0.000000  -0.000000  -0.000000
    38  H   -0.007304   0.594031   0.003077   0.000020  -0.000000  -0.000000
    39  H    0.000004   0.003077   0.599408  -0.006973  -0.000148  -0.000000
    40  H    0.000000   0.000020  -0.006973   0.599535  -0.004723  -0.000000
    41  H   -0.000000  -0.000000  -0.000148  -0.004723   0.593190   0.000014
    42  H   -0.000000  -0.000000  -0.000000  -0.000000   0.000014   0.592802
 Mulliken charges:
               1
     1  C   -0.123304
     2  C   -0.123649
     3  C   -0.129270
     4  C   -0.183651
     5  C    0.089912
     6  C   -0.172086
     7  C   -0.130138
     8  C   -0.130956
     9  C   -0.160546
    10  C    0.084118
    11  C    0.086902
    12  C   -0.190477
    13  C   -0.188289
    14  C    0.093676
    15  C    0.092825
    16  C   -0.170095
    17  C   -0.183674
    18  C    0.091583
    19  C   -0.173210
    20  C   -0.187751
    21  C   -0.169829
    22  C   -0.161839
    23  C   -0.190123
    24  C   -0.130900
    25  H    0.128616
    26  H    0.130969
    27  H    0.127787
    28  H    0.127710
[...]
    28  H   -0.000000  -0.000000  -0.000000  -0.000000  -0.000002  -0.000180
    29  H   -0.000000  -0.000000  -0.000000   0.000000   0.000000  -0.000000
    30  H   -0.000021  -0.000004  -0.000000   0.000000  -0.000000   0.000000
    31  H   -0.039654   0.003280  -0.000173  -0.000003  -0.000000  -0.000000
    32  H    0.348446  -0.040604  -0.009498   0.005423  -0.000029  -0.000007
    33  H    0.005693  -0.009803  -0.040585   0.348106  -0.039661   0.003345
    34  H   -0.000002  -0.000170   0.003318  -0.039545   0.348364  -0.040954
    35  H    0.000002  -0.000170   0.003318   0.000529   0.006289  -0.040954
    36  H   -0.000029  -0.009802  -0.040585   0.006305   0.000524   0.003345
    37  H    0.006200  -0.040603  -0.009498  -0.000023  -0.000008  -0.000007
    38  H    0.000562   0.003280  -0.000173   0.000001  -0.000000  -0.000000
    39  H   -0.000008  -0.000004  -0.000000   0.000000   0.000000   0.000000
    40  H   -0.000000  -0.000000  -0.000000  -0.000000  -0.000000  -0.000000
    41  H    0.000000  -0.000000  -0.000000   0.000000  -0.000000   0.000000
    42  H    0.000000  -0.000000  -0.000000   0.000000   0.000000   0.000004
              19         20         21         22         23         24
     1  C   -0.000000  -0.000000  -0.000000   0.000003  -0.037337   0.548886
     2  C    0.000003  -0.000000  -0.000000  -0.000000   0.000000   0.000000
     3  C    0.000342  -0.000002   0.000000   0.000000   0.000000   0.000000
     4  C   -0.012680   0.000357  -0.000000   0.000000   0.000000   0.000000
     5  C   -0.047968   0.006010  -0.000000  -0.000000  -0.000000   0.000000
     6  C    0.005485  -0.000174  -0.000000   0.000000   0.000000   0.000000
     7  C   -0.000173   0.000002   0.000000  -0.000000   0.000000   0.000000
     8  C    0.000000   0.000000   0.000002  -0.000174  -0.043732  -0.026391
     9  C    0.000000   0.000000  -0.000179   0.005657  -0.060490  -0.043732
    10  C   -0.000000   0.000000   0.006010  -0.048039   0.522388  -0.014012
    11  C   -0.000000   0.000003  -0.021626   0.520848  -0.047473   0.005983
    12  C    0.000002  -0.000173  -0.047313  -0.052286   0.005658  -0.000174
    13  C   -0.000169   0.005555  -0.053025  -0.047313  -0.000179   0.000002
    14  C    0.006002  -0.047976   0.521173  -0.021348   0.000003  -0.000000
    15  C   -0.020704   0.520831  -0.047624   0.005986   0.000000  -0.000000
    16  C   -0.047699  -0.052449   0.005555  -0.000173   0.000000   0.000000
    17  C   -0.051063  -0.047699  -0.000169   0.000002   0.000000   0.000000
    18  C    0.521030  -0.021297  -0.000001  -0.000000  -0.000000  -0.000000
    19  C    5.030039   0.477077   0.000341  -0.000002   0.000000  -0.000000
    20  C    0.477077   5.032154  -0.012688   0.000340  -0.000000   0.000000
    21  C    0.000341  -0.012688   5.030858   0.478533   0.000361  -0.000002
    22  C   -0.000002   0.000340   0.478533   5.030899  -0.012865   0.000347
    23  C    0.000000  -0.000000   0.000361  -0.012865   5.003696   0.514414
    24  C   -0.000000   0.000000  -0.000002   0.000347   0.514414   4.874040
    25  H   -0.000002  -0.000000  -0.000000  -0.000000   0.000000   0.000000
    26  H    0.005393  -0.000035  -0.000000  -0.000000  -0.000000   0.000000
    27  H   -0.000002  -0.000009   0.000000  -0.000000  -0.000000   0.000000
    28  H    0.000001  -0.000000  -0.000000   0.000000   0.000000   0.000000
    29  H   -0.000000  -0.000000  -0.000000   0.000001   0.000838   0.004589
    30  H    0.000000   0.000000  -0.000008  -0.000007   0.006360   0.000305
    31  H   -0.000000   0.000001   0.000562   0.006231   0.000000  -0.000009
    32  H   -0.000008  -0.000023   0.006200   0.000563   0.000001  -0.000000
    33  H    0.000524   0.006305  -0.000029  -0.000007   0.000000   0.000000
    34  H    0.006289   0.000529   0.000002  -0.000000  -0.000000  -0.000000
    35  H    0.348364  -0.039544  -0.000002  -0.000000   0.000000   0.000000
    36  H   -0.039662   0.348106   0.005693  -0.000031   0.000000  -0.000000
    37  H   -0.000029   0.005423   0.348446  -0.039609  -0.000003  -0.000000
    38  H   -0.000000  -0.000003  -0.039654   0.348466   0.005501  -0.000032
    39  H   -0.000000   0.000000  -0.000021   0.005642   0.350683  -0.044389
    40  H    0.000000   0.000000  -0.000000  -0.000002  -0.038863   0.356945
    41  H   -0.000000   0.000000   0.000000   0.000000   0.004777  -0.043152
    42  H    0.000000   0.000000   0.000000  -0.000000   0.000000   0.000000
              25         26         27         28         29         30
     1  C    0.000000   0.000000   0.000000   0.000000  -0.043088   0.004752
     2  C   -0.043085   0.004742   0.004742  -0.043085   0.000000   0.000000
     3  C    0.356938  -0.044245   0.000312   0.004586   0.000000   0.000000
     4  C   -0.038881   0.350944   0.006309   0.000839   0.000000   0.000000
     5  C    0.003437  -0.042279  -0.042278   0.003436   0.000000  -0.000000
     6  C    0.000839   0.006310   0.350944  -0.038881   0.000000  -0.000000
     7  C    0.004586   0.000312  -0.044247   0.356938   0.000000   0.000000
     8  C    0.000000   0.000000   0.000000   0.000000   0.356945  -0.044389
     9  C    0.000000  -0.000000  -0.000000   0.000000  -0.038862   0.350683
    10  C    0.000000   0.000000   0.000000   0.000000   0.003423  -0.042037
    11  C    0.000000  -0.000000  -0.000000   0.000000  -0.000180  -0.010021
    12  C    0.000000  -0.000000  -0.000000  -0.000000  -0.000002   0.005643
    13  C   -0.000000   0.000000  -0.000000  -0.000000  -0.000000  -0.000021
    14  C   -0.000000  -0.000000  -0.000000  -0.000000  -0.000000  -0.000004
    15  C   -0.000000  -0.000008  -0.000008  -0.000000  -0.000000  -0.000000
    16  C   -0.000000  -0.000009  -0.000035  -0.000000   0.000000   0.000000
    17  C    0.000001  -0.000002   0.005392  -0.000002   0.000000  -0.000000
    18  C   -0.000180  -0.009667  -0.009667  -0.000180  -0.000000   0.000000
    19  C   -0.000002   0.005393  -0.000002   0.000001  -0.000000   0.000000
    20  C   -0.000000  -0.000035  -0.000009  -0.000000  -0.000000   0.000000
    21  C   -0.000000  -0.000000   0.000000  -0.000000  -0.000000  -0.000008
    22  C   -0.000000  -0.000000  -0.000000   0.000000   0.000001  -0.000007
    23  C    0.000000  -0.000000  -0.000000   0.000000   0.000838   0.006360
    24  C    0.000000   0.000000   0.000000   0.000000   0.004589   0.000305
    25  H    0.597155  -0.005623   0.000017  -0.000189   0.000000   0.000000
    26  H   -0.005623   0.599303  -0.000173   0.000017   0.000000   0.000000
    27  H    0.000017  -0.000173   0.599305  -0.005623   0.000000  -0.000000
    28  H   -0.000189   0.000017  -0.005623   0.597154   0.000000   0.000000
    29  H    0.000000   0.000000   0.000000   0.000000   0.597203  -0.005626
    30  H    0.000000   0.000000  -0.000000   0.000000  -0.005626   0.599955
    31  H   -0.000000   0.000000  -0.000000   0.000000   0.000005   0.002743
    32  H    0.000000  -0.000000  -0.000000  -0.000000   0.000000   0.000004
    33  H    0.000000   0.000000   0.000007   0.000000   0.000000   0.000000
    34  H    0.000000   0.000001   0.002707   0.000006  -0.000000   0.000000
    35  H    0.000006   0.002707   0.000001   0.000000   0.000000  -0.000000
    36  H    0.000000   0.000007   0.000000   0.000000  -0.000000   0.000000
    37  H   -0.000000  -0.000000  -0.000000   0.000000   0.000000   0.000000
    38  H    0.000000  -0.000000   0.000000  -0.000000   0.000000   0.000000
    39  H    0.000000  -0.000000   0.000000   0.000000   0.000017  -0.000173
    40  H    0.000000   0.000000   0.000000   0.000000  -0.000189   0.000017
    41  H    0.000000   0.000000   0.000000   0.000000  -0.005509  -0.000176
    42  H   -0.005512  -0.000176  -0.000176  -0.005512   0.000000   0.000000
              31         32         33         34         35         36
     1  C   -0.000006  -0.000000   0.000000  -0.000000  -0.000000   0.000000
     2  C    0.000000  -0.000000  -0.000000  -0.000006  -0.000006  -0.000000
     3  C    0.000000  -0.000000  -0.000000  -0.000008  -0.000047  -0.000000
     4  C   -0.000000   0.000000   0.000002  -0.000002   0.005533  -0.000002
     5  C   -0.000000  -0.000000  -0.000170  -0.009386  -0.009387  -0.000170
     6  C   -0.000000  -0.000000  -0.000002   0.005532  -0.000002   0.000002
     7  C   -0.000000  -0.000000  -0.000000  -0.000047  -0.000008  -0.000000
     8  C   -0.000032  -0.000000  -0.000000   0.000000  -0.000000   0.000000
     9  C    0.005500  -0.000003   0.000000   0.000000  -0.000000   0.000000
    10  C   -0.009435  -0.000172  -0.000000  -0.000000  -0.000000  -0.000000
    11  C   -0.040746   0.003284  -0.000003  -0.000000  -0.000000  -0.000003
    12  C    0.348466  -0.039608  -0.000031  -0.000000  -0.000000  -0.000007
    13  C   -0.039654   0.348446   0.005693  -0.000002   0.000002  -0.000029
    14  C    0.003280  -0.040604  -0.009803  -0.000170  -0.000170  -0.009802
    15  C   -0.000173  -0.009498  -0.040585   0.003318   0.003318  -0.040585
    16  C   -0.000003   0.005423   0.348106  -0.039545   0.000529   0.006305
    17  C   -0.000000  -0.000029  -0.039661   0.348364   0.006289   0.000524
    18  C   -0.000000  -0.000007   0.003345  -0.040954  -0.040954   0.003345
    19  C   -0.000000  -0.000008   0.000524   0.006289   0.348364  -0.039662
    20  C    0.000001  -0.000023   0.006305   0.000529  -0.039544   0.348106
    21  C    0.000562   0.006200  -0.000029   0.000002  -0.000002   0.005693
    22  C    0.006231   0.000563  -0.000007  -0.000000  -0.000000  -0.000031
    23  C    0.000000   0.000001   0.000000  -0.000000   0.000000   0.000000
    24  C   -0.000009  -0.000000   0.000000  -0.000000   0.000000  -0.000000
    25  H   -0.000000   0.000000   0.000000   0.000000   0.000006   0.000000
    26  H    0.000000  -0.000000   0.000000   0.000001   0.002707   0.000007
    27  H   -0.000000  -0.000000   0.000007   0.002707   0.000001   0.000000
    28  H    0.000000  -0.000000   0.000000   0.000006   0.000000   0.000000
    29  H    0.000005   0.000000   0.000000  -0.000000   0.000000  -0.000000
    30  H    0.002743   0.000004   0.000000   0.000000  -0.000000   0.000000
    31  H    0.595195  -0.005338   0.000004   0.000000   0.000000   0.000000
    32  H   -0.005338   0.595144   0.002790   0.000007   0.000000   0.000000
    33  H    0.000004   0.002790   0.596144  -0.005402   0.000019  -0.000181
    34  H    0.000000   0.000007  -0.005402   0.595614  -0.000181   0.000019
    35  H    0.000000   0.000000   0.000019  -0.000181   0.595612  -0.005402
    36  H    0.000000   0.000000  -0.000181   0.000019  -0.005402   0.596146
    37  H    0.000019  -0.000182   0.000000   0.000000   0.000007   0.002790
    38  H   -0.000182   0.000019   0.000000   0.000000   0.000000   0.000004
    39  H    0.000000   0.000000   0.000000  -0.000000   0.000000   0.000000
    40  H    0.000000   0.000000  -0.000000   0.000000  -0.000000   0.000000
    41  H   -0.000000  -0.000000   0.000000   0.000000   0.000000   0.000000
    42  H    0.000000  -0.000000  -0.000000  -0.000000  -0.000000  -0.000000
              37         38         39         40         41         42
     1  C   -0.000000  -0.000006   0.004752  -0.043088   0.358988   0.000000
     2  C   -0.000000   0.000000   0.000000   0.000000   0.000000   0.358995
     3  C   -0.000000  -0.000000   0.000000   0.000000   0.000000  -0.043167
     4  C   -0.000000  -0.000000  -0.000000   0.000000   0.000000   0.004782
     5  C   -0.000000  -0.000000  -0.000000   0.000000   0.000000   0.000608
     6  C    0.000000  -0.000000   0.000000   0.000000   0.000000   0.004782
     7  C   -0.000000   0.000000   0.000000   0.000000   0.000000  -0.043168
     8  C   -0.000000  -0.000009   0.000305   0.004589  -0.043152   0.000000
     9  C    0.000001   0.000000   0.006360   0.000838   0.004777   0.000000
    10  C   -0.000172  -0.009435  -0.042038   0.003423   0.000611   0.000000
    11  C    0.003284  -0.040746  -0.010021  -0.000180   0.000004   0.000000
    12  C    0.000563   0.006231  -0.000007   0.000001   0.000000  -0.000000
    13  C    0.006200   0.000562  -0.000008  -0.000000   0.000000   0.000000
    14  C   -0.040603   0.003280  -0.000004  -0.000000  -0.000000  -0.000000
    15  C   -0.009498  -0.000173  -0.000000  -0.000000  -0.000000  -0.000000
    16  C   -0.000023   0.000001   0.000000  -0.000000   0.000000   0.000000
    17  C   -0.000008  -0.000000   0.000000  -0.000000  -0.000000   0.000000
    18  C   -0.000007  -0.000000   0.000000  -0.000000   0.000000   0.000004
    19  C   -0.000029  -0.000000  -0.000000   0.000000  -0.000000   0.000000
    20  C    0.005423  -0.000003   0.000000   0.000000   0.000000   0.000000
    21  C    0.348446  -0.039654  -0.000021  -0.000000   0.000000   0.000000
    22  C   -0.039609   0.348466   0.005642  -0.000002   0.000000  -0.000000
    23  C   -0.000003   0.005501   0.350683  -0.038863   0.004777   0.000000
    24  C   -0.000000  -0.000032  -0.044389   0.356945  -0.043152   0.000000
    25  H   -0.000000   0.000000   0.000000   0.000000   0.000000  -0.005512
    26  H   -0.000000  -0.000000  -0.000000   0.000000   0.000000  -0.000176
    27  H   -0.000000   0.000000   0.000000   0.000000   0.000000  -0.000176
    28  H    0.000000  -0.000000   0.000000   0.000000   0.000000  -0.005512
    29  H    0.000000   0.000000   0.000017  -0.000189  -0.005509   0.000000
    30  H    0.000000   0.000000  -0.000173   0.000017  -0.000176   0.000000
    31  H    0.000019  -0.000182   0.000000   0.000000  -0.000000   0.000000
    32  H   -0.000182   0.000019   0.000000   0.000000  -0.000000  -0.000000
    33  H    0.000000   0.000000   0.000000  -0.000000   0.000000  -0.000000
    34  H    0.000000   0.000000  -0.000000   0.000000   0.000000  -0.000000
    35  H    0.000007   0.000000   0.000000  -0.000000   0.000000  -0.000000
    36  H    0.002790   0.000004   0.000000   0.000000   0.000000  -0.000000
    37  H    0.595143  -0.005337   0.000004   0.000000  -0.000000  -0.000000
    38  H   -0.005337   0.595193   0.002742   0.000005  -0.000000   0.000000
    39  H    0.000004   0.002742   0.599955  -0.005626  -0.000176   0.000000
    40  H    0.000000   0.000005  -0.005626   0.597203  -0.005509   0.000000
    41  H   -0.000000  -0.000000  -0.000176  -0.005509   0.598838   0.000000
    42  H   -0.000000   0.000000   0.000000   0.000000   0.000000   0.598901
 Mulliken charges:
               1
     1  C   -0.126764
     2  C   -0.126760
     3  C   -0.133702
     4  C   -0.173588
     5  C    0.088425
     6  C   -0.173590
     7  C   -0.133701
     8  C   -0.133619
     9  C   -0.173735
    10  C    0.089315
    11  C    0.094582
    12  C   -0.181668
    13  C   -0.181396
    14  C    0.094908
    15  C    0.094256
    16  C   -0.180622
    17  C   -0.180731
    18  C    0.093187
    19  C   -0.180730
    20  C   -0.180621
    21  C   -0.181396
    22  C   -0.181666
    23  C   -0.173738
    24  C   -0.133618
    25  H    0.130494
    26  H    0.132484
    27  H    0.132482
    28  H    0.130494
    29  H    0.130434
    30  H    0.132002
    31  H    0.133570
    32  H    0.133590
    33  H    0.132934
    34  H    0.133318
    35  H    0.133320
    36  H    0.132934
    37  H    0.133591
    38  H    0.133571
    39  H    0.132002
    40  H    0.130434
    41  H    0.129679
    42  H    0.129640
 Sum of Mulliken charges =  -0.00000
 Mulliken charges with hydrogens summed into heavy atoms:
               1
     1  C    0.002915
     2  C    0.002881
     3  C   -0.003208
     4  C   -0.041104
     5  C    0.088425
     6  C   -0.041108
     7  C   -0.003206
     8  C   -0.003186
     9  C   -0.041733
    10  C    0.089315
    11  C    0.094582
    12  C   -0.048098
    13  C   -0.047806
    14  C    0.094908
    15  C    0.094256
    16  C   -0.047688
    17  C   -0.047413
    18  C    0.093187
    19  C   -0.047410
    20  C   -0.047687
    21  C   -0.047805
    22  C   -0.048095
    23  C   -0.041736
    24  C   -0.003185
 Electronic spatial extent (au):  <R**2>=          15603.6215
 Charge=             -0.0000 electrons
 Dipole moment (field-independent basis, Debye):
    X=              0.0044    Y=              0.0000    Z=             -0.0000  Tot=              0.0044
 Quadrupole moment (field-independent basis, Debye-Ang):
   XX=           -119.2840   YY=           -125.9754   ZZ=           -142.5277
   XY=              0.0001   XZ=              0.0001   YZ=             -0.1966
 Traceless Quadrupole moment (field-independent basis, Debye-Ang):
   XX=              9.9784   YY=              3.2870   ZZ=            -13.2653
   XY=              0.0001   XZ=              0.0001   YZ=             -0.1966
 Octapole moment (field-independent basis, Debye-Ang**2):
  XXX=             -0.2043  YYY=              0.0004  ZZZ=             -0.0002  XYY=            -11.7733
  XXY=              0.0012  XXZ=              0.0009  XZZ=             11.8363  YZZ=             -0.0005
  YYZ=              0.0000  XYZ=            -28.4370
 Hexadecapole moment (field-independent basis, Debye-Ang**3):
 XXXX=         -18240.8780 YYYY=           -926.6467 ZZZZ=           -346.2110 XXXY=              0.0120
 XXXZ=              0.0013 YYYX=              0.0013 YYYZ=             -0.7180 ZZZX=              0.0027
 ZZZY=             -0.1215 XXYY=          -3338.3670 XXZZ=          -3669.2739 YYZZ=           -213.9862
 XXYZ=           -135.4796 YYXZ=             -0.0006 ZZXY=             -0.0010
 N-N= 1.646314325674D+03 E-N=-5.434639572645D+03  KE= 9.163230231073D+02
 1\1\GINC-N095\FOpt\RB3LYP\6-31G(d)\C24H18\CCOLWELL\18-Apr-2019\0\\#n B
 3LYP/6-31G(d) opt\\geometry optimization\\0,1\C,-7.8945616562,0.151396
 1651,0.0459345834\C,7.8970160966,0.135475165,-0.0545729463\C,7.1864236
 248,-0.6413164476,-0.9714982186\C,5.7924654884,-0.6400060357,-0.962054
 6387\C,5.0761037534,0.1383714608,-0.0365799015\C,5.8058058357,0.915263
 1523,0.8796629837\C,7.199778985,0.9137143411,0.8713221952\C,-7.1828801
 861,0.2090514527,1.2456230698\C,-5.7889534748,0.2084113632,1.236331061
 6\C,-5.0734092265,0.1485691963,0.0279890859\C,-3.5893192976,0.14708186
 5,0.0185601137\C,-2.8546922507,-0.5318506564,1.0052411457\C,-1.4634993
 992,-0.5331176826,0.9966675558\C,-0.739991726,0.1442433192,0.000425495
 8\C,0.7426935821,0.1427602377,-0.0090122387\C,1.4794820046,0.191772311
 ,1.1865106209\C,2.870687292,0.19009107,1.177576072\C,3.5918772462,0.13
 98683507,-0.0271189333\C,2.8553272601,0.0911631819,-1.2225565741\C,1.4
 641253874,0.0922954175,-1.2138040409\C,-1.4747705533,0.8230877922,-0.9
 865238704\C,-2.8659565699,0.8245916605,-0.9773888463\C,-5.8043810789,0
 .0901813594,-1.1711425334\C,-7.1983161746,0.0923305694,-1.1627024639\H
 ,7.7184640459,-1.2578671911,-1.6913985576\H,5.2503345834,-1.2696740632
 ,-1.6620782032\H,5.2739570968,1.5460358693,1.5865442322\H,7.7422331711
 ,1.5291480583,1.5843766167\H,-7.7140631408,0.2640692125,2.192344082\H,
 -5.2460468313,0.2817644195,2.1746156914\H,-3.3813886981,-1.0966485704,
 1.7694211029\H,-0.9285547532,-1.0990845129,1.7542186594\H,0.9545904683
 ,0.2497282914,2.1360464196\H,3.4080505186,0.2109227432,2.1216741692\H,
 3.3806076233,0.0692896896,-2.1734059736\H,0.9270914805,0.0354244812,-2
 .1565928429\H,-0.9483789088,1.388030786,-1.7507997636\H,-3.4012299455,
 1.3904828647,-1.7347708487\H,-5.2736141606,0.0157642314,-2.1162641461\
 H,-7.7415945693,0.0383869026,-2.1025955205\H,-8.9811795111,0.152485993
 1,0.0528502653\H,8.9836365683,0.1343631863,-0.0614921601\\Version=EM64
 L-G09RevE.01\State=1-A\HF=-925.4214552\RMSD=3.989e-09\RMSF=2.272e-06\D
 ipole=0.0017154,0.0000128,0.0000002\Quadrupole=7.418472,-9.8200605,2.4
 015885,-0.0127503,-0.031127,0.7357155\PG=C01 [X(C24H18)]\\@


 LOGIC IS A SYSTEMATIC METHOD OF COMING TO THE
 WRONG CONCLUSION WITH CONFIDENCE.
 Job cpu time:       0 days  1 hours  1 minutes  4.9 seconds.
 File lengths (MBytes):  RWF=     99 Int=      0 D2E=      0 Chk=     12 Scr=      1
 Normal termination of Gaussian 09 at Thu Apr 18 15:03:19 2019.
