
                                 *****************
                                 * O   R   C   A *
                                 *****************

           --- An Ab Initio, DFT and Semiempirical electronic structure package ---

                  #######################################################
                  #                        -***-                        #
                  #          Department of theory and spectroscopy      #
                  #               Directorship: Frank Neese             #
                  #        Max Planck Institute fuer Kohlenforschung    #
                  #                Kaiser Wilhelm Platz 1               #
                  #                 D-45470 Muelheim/Ruhr               #
                  #                      Germany                        #
                  #                                                     #
                  #                  All rights reserved                #
                  #                        -***-                        #
                  #######################################################


                         Program Version 4.2.1 -  RELEASE  -


 With contributions from (in alphabetic order):
   Daniel Aravena         : Magnetic Suceptibility
   Michael Atanasov       : Ab Initio Ligand Field Theory (pilot matlab implementation)
   Alexander A. Auer      : GIAO ZORA, VPT2
   Ute Becker             : Parallelization
   Giovanni Bistoni       : ED, misc. LED, open-shell LED, HFLD
   Martin Brehm           : Molecular dynamics
   Dmytro Bykov           : SCF Hessian
   Vijay G. Chilkuri      : MRCI spin determinant printing, contributions to CSF-ICE
   Dipayan Datta          : RHF DLPNO-CCSD density
   Achintya Kumar Dutta   : EOM-CC, STEOM-CC
   Dmitry Ganyushin       : Spin-Orbit,Spin-Spin,Magnetic field MRCI
   Miquel Garcia          : C-PCM Hessian, Gaussian charge scheme
   Yang Guo               : DLPNO-NEVPT2, CIM, IAO-localization
   Andreas Hansen         : Spin unrestricted coupled pair/coupled cluster methods
   Benjamin Helmich-Paris : CASSCF linear response (MC-RPA)
   Lee Huntington         : MR-EOM, pCC
   Robert Izsak           : Overlap fitted RIJCOSX, COSX-SCS-MP3, EOM
   Christian Kollmar      : KDIIS, OOCD, Brueckner-CCSD(T), CCSD density
   Simone Kossmann        : Meta GGA functionals, TD-DFT gradient, OOMP2, MP2 Hessian
   Martin Krupicka        : AUTO-CI
   Lucas Lang             : DCDCAS
   Dagmar Lenk            : GEPOL surface, SMD
   Dimitrios Liakos       : Extrapolation schemes; Compound Job, initial MDCI parallelization
   Dimitrios Manganas     : Further ROCIS development; embedding schemes
   Dimitrios Pantazis     : SARC Basis sets
   Taras Petrenko         : DFT Hessian,TD-DFT gradient, ASA, ECA, R-Raman, ABS, FL, XAS/XES, NRVS
   Peter Pinski           : DLPNO-MP2, DLPNO-MP2 Gradient
   Christoph Reimann      : Effective Core Potentials
   Marius Retegan         : Local ZFS, SOC
   Christoph Riplinger    : Optimizer, TS searches, QM/MM, DLPNO-CCSD(T), (RO)-DLPNO pert. Triples
   Tobias Risthaus        : Range-separated hybrids, TD-DFT gradient, RPA, STAB
   Michael Roemelt        : Original ROCIS implementation
   Masaaki Saitow         : Open-shell DLPNO-CCSD energy and density
   Barbara Sandhoefer     : DKH picture change effects
   Avijit Sen             : IP-ROCIS
   Kantharuban Sivalingam : CASSCF convergence, NEVPT2, FIC-MRCI
   Bernardo de Souza      : ESD, SOC TD-DFT
   Georgi Stoychev        : AutoAux, RI-MP2 NMR
   Willem Van den Heuvel  : Paramagnetic NMR
   Boris Wezisla          : Elementary symmetry handling
   Frank Wennmohs         : Technical directorship


 We gratefully acknowledge several colleagues who have allowed us to
 interface, adapt or use parts of their codes:
   Stefan Grimme, W. Hujo, H. Kruse,             : VdW corrections, initial TS optimization,
                  C. Bannwarth                     DFT functionals, gCP, sTDA/sTD-DF
   Ed Valeev, F. Pavosevic, A. Kumar             : LibInt (2-el integral package), F12 methods
   Garnet Chan, S. Sharma, J. Yang, R. Olivares  : DMRG
   Ulf Ekstrom                                   : XCFun DFT Library
   Mihaly Kallay                                 : mrcc  (arbitrary order and MRCC methods)
   Andreas Klamt, Michael Diedenhofen            : otool_cosmo (COSMO solvation model)
   Jiri Pittner, Ondrej Demel                    : Mk-CCSD
   Frank Weinhold                                : gennbo (NPA and NBO analysis)
   Christopher J. Cramer and Donald G. Truhlar   : smd solvation model
   Lars Goerigk                                  : TD-DFT with DH, B97 family of functionals
   V. Asgeirsson, H. Jonsson                     : NEB implementation
   FAccTs GmbH                                   : IRC, NEB, NEB-TS, Multilevel, MM, QM/MM, CI optimization
   S Lehtola, MJT Oliveira, MAL Marques          : LibXC Library


 Your calculation uses the libint2 library for the computation of 2-el integrals
 For citations please refer to: http://libint.valeyev.net

 Your ORCA version has been built with support for libXC version: 4.2.3
 For citations please refer to: https://tddft.org/programs/libxc/

 This ORCA versions uses:
   CBLAS   interface :  Fast vector & matrix operations
   LAPACKE interface :  Fast linear algebra routines
   SCALAPACK package :  Parallel linear algebra routines


----- Orbital basis set information -----
Your calculation utilizes the basis: 6-31G*
   H-He, Li-Ne : W. J. Hehre, R. Ditchfield and J.A. Pople, J. Chem. Phys. 56, 2257 (1972).
                 Note: He and Ne are unpublished basis sets taken from the Gaussian program.
                 Note: Li and B from J. D. Dill and J. A. Pople, J. Chem. Phys. 62, 2921 (1975).
   Na - Ar     : M. M. Francl, W. J. Pietro, W. J. Hehre, J. S. Binkley, M. S. Gordon, 
                 D. J. DeFrees and J. A. Pople, J. Chem. Phys. 77, 3654 (1982).
   K - Zn      : V. A. Rassolov, J. A. Pople, M. A. Ratner, and T. L. Windus, J. Chem. Phys. 109, 1223 (1998).

================================================================================
                                        WARNINGS
                       Please study these warnings very carefully!
================================================================================


WARNING: Geometry Optimization
  ===> : Switching off AutoStart
         For restart on a previous wavefunction, please use MOREAD

INFO   : the flag for use of LIBINT has been found!

================================================================================
                                       INPUT FILE
================================================================================
NAME = dummy4.inp
|  1> ! B3LYP OPT 6-31G*
|  2> %pal
|  3> 	nprocs 28
|  4> end
|  5> %geom
|  6> 	coordsys redundant_old
|  7> end
|  8> * xyz 0 1
|  9>   C     -3.452440    0.712200    0.112300
| 10>   C     -2.854410    2.067000   -0.087770
| 11>   C     -2.180790    2.294020   -1.303530
| 12>   C     -0.978290    2.991150   -1.337050
| 13>   C     -0.394940    3.491070   -0.156240
| 14>   C     -1.263000    3.595630    0.953140
| 15>   C     -2.468100    2.896110    0.987490
| 16>   C     -3.146900    0.051140    1.317720
| 17>   C     -2.852670   -1.307900    1.334290
| 18>   C     -2.850710   -2.064690    0.146350
| 19>   C     -1.750560   -3.060350   -0.028940
| 20>   C     -1.025270   -3.587410    1.061510
| 21>   C      0.359930   -3.723820    0.999750
| 22>   C      1.078790   -3.341450   -0.154950
| 23>   C      2.376020   -2.603670   -0.071370
| 24>   C      2.794420   -2.071370    1.166140
| 25>   C      3.369220   -0.807520    1.249940
| 26>   C      3.524920   -0.003220    0.100850
| 27>   C      3.484330   -0.703720   -1.123830
| 28>   C      2.936100   -1.979970   -1.207000
| 29>   C      0.306000   -3.214710   -1.327120
| 30>   C     -1.075390   -3.072660   -1.265180
| 31>   C     -3.530490   -1.484270   -0.947070
| 32>   C     -3.824850   -0.121940   -0.964160
| 33>   H     -2.470040    1.740800   -2.191530
| 34>   H     -0.396430    2.946550   -2.251890
| 35>   H     -0.933730    4.101650    1.857050
| 36>   H     -3.032730    2.880270    1.916480
| 37>   H     -2.915890    0.629970    2.206500
| 38>   H     -2.408990   -1.717030    2.236330
| 39>   H     -1.518110   -3.748470    2.016950
| 40>   H      0.889060   -3.984550    1.912210
| 41>   H      2.505840   -2.555680    2.093910
| 42>   H      3.522750   -0.388580    2.239500
| 43>   H      3.717610   -0.193820   -2.053560
| 44>   H      2.793000   -2.407790   -2.194860
| 45>   H      0.786250   -3.012770   -2.278630
| 46>   H     -1.591470   -2.756600   -2.166300
| 47>   H     -3.697240   -2.061540   -1.853050
| 48>   H     -4.208860    0.314830   -1.882820
| 49>   H      0.598759    3.925844   -0.149027
| 50>   H      3.845398    1.031119    0.160990
| 51> 
| 52> **                         ****END OF INPUT****
================================================================================

                       *****************************
                       * Geometry Optimization Run *
                       *****************************

Geometry optimization settings:
Update method            Update   .... BFGS
Choice of coordinates    CoordSys .... Old Redundant Internals
Initial Hessian          InHess   .... Almoef's Model

Convergence Tolerances:
Energy Change            TolE     ....  5.0000e-06 Eh
Max. Gradient            TolMAXG  ....  3.0000e-04 Eh/bohr
RMS Gradient             TolRMSG  ....  1.0000e-04 Eh/bohr
Max. Displacement        TolMAXD  ....  4.0000e-03 bohr
RMS Displacement         TolRMSD  ....  2.0000e-03 bohr
Strict Convergence                ....  False
------------------------------------------------------------------------------
                        ORCA OPTIMIZATION COORDINATE SETUP
------------------------------------------------------------------------------

The optimization will be done in redundant internal coordinates
Making redundant internal coordinates   ... (old redundants) done
Evaluating the initial hessian          ...  (Almloef) done
Evaluating the coordinates              ...  done
Calculating the B-matrix                .... done
Calculating the G-matrix                .... done
Diagonalizing the G-matrix              .... done
Small eigenvalue found = 2.712e-03
Small eigenvalue found = 3.000e-03
Small eigenvalue found = 7.624e-03
Small eigenvalue found = 1.360e-02
Small eigenvalue found = 1.735e-02
Small eigenvalue found = 2.334e-02
The first mode is                       ....  125
The number of degrees of freedom        ....  120

    -----------------------------------------------------------------
                    Redundant Internal Coordinates


    -----------------------------------------------------------------
         Definition                    Initial Value    Approx d2E/dq
    -----------------------------------------------------------------
      1. B(C   1,C   0)                  1.4944         0.425812   
      2. B(C   2,C   1)                  1.4083         0.584124   
      3. B(C   3,C   2)                  1.3904         0.623955   
      4. B(C   4,C   3)                  1.4087         0.583245   
      5. B(C   5,C   4)                  1.4125         0.575208   
      6. B(C   6,C   1)                  1.4117         0.576963   
      7. B(C   6,C   5)                  1.3938         0.616057   
      8. B(C   7,C   0)                  1.4083         0.584110   
      9. B(C   8,C   7)                  1.3906         0.623365   
     10. B(C   9,C   8)                  1.4085         0.583696   
     11. B(C  10,C   9)                  1.4941         0.426208   
     12. B(C  11,C  10)                  1.4117         0.576906   
     13. B(C  12,C  11)                  1.3933         0.617336   
     14. B(C  13,C  12)                  1.4129         0.574376   
     15. B(C  14,C  13)                  1.4947         0.425310   
     16. B(C  15,C  14)                  1.4106         0.579228   
     17. B(C  16,C  15)                  1.3909         0.622626   
     18. B(C  17,C  16)                  1.4112         0.577936   
     19. B(C  18,C  17)                  1.4114         0.577454   
     20. B(C  19,C  14)                  1.4115         0.577336   
     21. B(C  19,C  18)                  1.3915         0.621351   
     22. B(C  20,C  13)                  1.4097         0.581180   
     23. B(C  21,C  10)                  1.4087         0.583423   
     24. B(C  21,C  20)                  1.3901         0.624670   
     25. B(C  22,C   9)                  1.4123         0.575679   
     26. B(C  23,C   0)                  1.4118         0.576661   
     27. B(C  23,C  22)                  1.3939         0.615969   
     28. B(H  24,C   2)                  1.0855         0.366132   
     29. B(H  25,C   3)                  1.0851         0.366616   
     30. B(H  26,C   5)                  1.0870         0.364116   
     31. B(H  27,C   6)                  1.0872         0.363776   
     32. B(H  28,C   7)                  1.0855         0.366084   
     33. B(H  29,C   8)                  1.0853         0.366347   
     34. B(H  30,C  11)                  1.0871         0.364012   
     35. B(H  31,C  12)                  1.0865         0.364723   
     36. B(H  32,C  15)                  1.0856         0.365928   
     37. B(H  33,C  16)                  1.0855         0.366102   
     38. B(H  34,C  18)                  1.0857         0.365790   
     39. B(H  35,C  19)                  1.0860         0.365444   
     40. B(H  36,C  20)                  1.0848         0.367045   
     41. B(H  37,C  21)                  1.0855         0.366140   
     42. B(H  38,C  22)                  1.0871         0.363920   
     43. B(H  39,C  23)                  1.0873         0.363722   
     44. B(H  40,C   4)                  1.0847         0.367215   
     45. B(H  41,C  17)                  1.0845         0.367425   
     46. A(C   2,C   1,C   0)          116.9450         0.401688   
     47. A(C   3,C   2,C   1)          121.0189         0.429932   
     48. A(C   4,C   3,C   2)          121.0555         0.429816   
     49. A(C   5,C   4,C   3)          115.4746         0.423598   
     50. A(C   6,C   1,C   0)          122.6838         0.400816   
     51. A(C   6,C   1,C   2)          115.5929         0.423943   
     52. A(C   6,C   5,C   4)          120.9001         0.427769   
     53. A(C   5,C   6,C   1)          120.8361         0.428003   
     54. A(C   7,C   0,C   1)          116.9571         0.401686   
     55. A(C   8,C   7,C   0)          120.9863         0.429858   
     56. A(C   9,C   8,C   7)          121.0199         0.429803   
     57. A(C  10,C   9,C   8)          117.2592         0.401702   
     58. A(C  11,C  10,C   9)          122.4437         0.400874   
     59. A(C  12,C  11,C  10)          120.8709         0.428155   
     60. A(C  13,C  12,C  11)          121.0353         0.427817   
     61. A(C  14,C  13,C  12)          121.9682         0.400416   
     62. A(C  15,C  14,C  13)          119.5209         0.401009   
     63. A(C  16,C  15,C  14)          121.2181         0.429119   
     64. A(C  17,C  16,C  15)          120.9568         0.428947   
     65. A(C  18,C  17,C  16)          114.8647         0.423201   
     66. A(C  19,C  14,C  13)          121.1642         0.400778   
     67. A(C  19,C  14,C  15)          114.9222         0.423355   
     68. A(C  19,C  18,C  17)          121.2238         0.428725   
     69. A(C  18,C  19,C  14)          120.8981         0.428710   
     70. A(C  20,C  13,C  12)          115.1486         0.423220   
     71. A(C  20,C  13,C  14)          118.5478         0.401247   
     72. A(C  21,C  10,C   9)          117.4971         0.401668   
     73. A(C  21,C  10,C  11)          115.3647         0.423845   
     74. A(C  21,C  20,C  13)          121.1255         0.429631   
     75. A(C  20,C  21,C  10)          121.0853         0.429928   
     76. A(C  22,C   9,C   8)          115.5619         0.423719   
     77. A(C  22,C   9,C  10)          122.5105         0.400724   
     78. A(C  23,C   0,C   1)          122.6240         0.400779   
     79. A(C  23,C   0,C   7)          115.6267         0.423902   
     80. A(C  23,C  22,C   9)          120.8518         0.427821   
     81. A(C  22,C  23,C   0)          120.8239         0.427952   
     82. A(H  24,C   2,C   1)          119.7755         0.350353   
     83. A(H  24,C   2,C   3)          117.7934         0.354285   
     84. A(H  25,C   3,C   2)          117.6120         0.354364   
     85. A(H  25,C   3,C   4)          119.9480         0.350342   
     86. A(H  26,C   5,C   4)          120.0939         0.349120   
     87. A(H  26,C   5,C   6)          118.3622         0.353190   
     88. A(H  27,C   6,C   1)          120.0102         0.349244   
     89. A(H  27,C   6,C   5)          118.5141         0.353135   
     90. A(H  28,C   7,C   0)          119.7801         0.350344   
     91. A(H  28,C   7,C   8)          117.7968         0.354220   
     92. A(H  29,C   8,C   7)          117.6975         0.354263   
     93. A(H  29,C   8,C   9)          119.8584         0.350345   
     94. A(H  30,C  11,C  10)          120.0859         0.349276   
     95. A(H  30,C  11,C  12)          118.3723         0.353297   
     96. A(H  31,C  12,C  11)          118.0628         0.353414   
     97. A(H  31,C  12,C  13)          120.2314         0.349133   
     98. A(H  32,C  15,C  14)          120.1679         0.349823   
     99. A(H  32,C  15,C  16)          117.6266         0.354123   
    100. A(H  33,C  16,C  15)          117.6485         0.354152   
    101. A(H  33,C  16,C  17)          120.4456         0.349719   
    102. A(H  34,C  18,C  17)          120.2481         0.349620   
    103. A(H  34,C  18,C  19)          117.6589         0.353977   
    104. A(H  35,C  19,C  14)          120.3643         0.349552   
    105. A(H  35,C  19,C  18)          117.8785         0.353921   
    106. A(H  36,C  20,C  13)          120.2240         0.350202   
    107. A(H  36,C  20,C  21)          117.3877         0.354503   
    108. A(H  37,C  21,C  10)          119.8765         0.350283   
    109. A(H  37,C  21,C  20)          117.7259         0.354355   
    110. A(H  38,C  22,C   9)          120.0536         0.349136   
    111. A(H  38,C  22,C  23)          118.4491         0.353150   
    112. A(H  39,C  23,C   0)          120.0027         0.349205   
    113. A(H  39,C  23,C  22)          118.5265         0.353117   
    114. A(H  40,C   4,C   3)          121.8153         0.350439   
    115. A(H  40,C   4,C   5)          121.8780         0.349619   
    116. A(H  41,C  17,C  16)          122.0738         0.349932   
    117. A(H  41,C  17,C  18)          122.0020         0.349883   
    118. D(C   2,C   1,C   0,C   7)    129.4954         0.012396   
    119. D(C   6,C   1,C   0,C   7)    -24.9093         0.012396   
    120. D(C   2,C   1,C   0,C  23)    -24.8840         0.012396   
    121. D(C   6,C   1,C   0,C  23)   -179.2887         0.012396   
    122. D(C   3,C   2,C   1,C   0)   -138.2998         0.023457   
    123. D(C   3,C   2,C   1,C   6)     17.9241         0.023457   
    124. D(H  24,C   2,C   1,C   0)     27.8398         0.023457   
    125. D(H  24,C   2,C   1,C   6)   -175.9364         0.023457   
    126. D(C   4,C   3,C   2,C   1)      0.0725         0.026961   
    127. D(C   4,C   3,C   2,H  24)   -166.3331         0.026961   
    128. D(H  25,C   3,C   2,C   1)    166.6320         0.026961   
    129. D(H  25,C   3,C   2,H  24)      0.2264         0.026961   
    130. D(C   5,C   4,C   3,C   2)    -18.0755         0.023383   
    131. D(C   5,C   4,C   3,H  25)    175.6753         0.023383   
    132. D(H  40,C   4,C   3,C   2)    172.1885         0.023383   
    133. D(H  40,C   4,C   3,H  25)      5.9394         0.023383   
    134. D(C   6,C   5,C   4,C   3)     18.0909         0.022714   
    135. D(H  26,C   5,C   4,C   3)   -171.2571         0.022714   
    136. D(C   6,C   5,C   4,H  40)   -172.1802         0.022714   
    137. D(H  26,C   5,C   4,H  40)     -1.5282         0.022714   
    138. D(C   5,C   6,C   1,C   0)    136.8791         0.022860   
    139. D(C   5,C   6,C   1,C   2)    -17.8430         0.022860   
    140. D(H  27,C   6,C   1,C   0)    -33.8181         0.022860   
    141. D(H  27,C   6,C   1,C   2)    171.4598         0.022860   
    142. D(C   1,C   6,C   5,C   4)     -0.1641         0.026242   
    143. D(C   1,C   6,C   5,H  26)   -170.9743         0.026242   
    144. D(H  27,C   6,C   5,C   4)    170.6694         0.026242   
    145. D(H  27,C   6,C   5,H  26)     -0.1408         0.026242   
    146. D(C   8,C   7,C   0,C   1)   -138.1884         0.023456   
    147. D(C   8,C   7,C   0,C  23)     17.9880         0.023456   
    148. D(H  28,C   7,C   0,C   1)     27.8338         0.023456   
    149. D(H  28,C   7,C   0,C  23)   -175.9898         0.023456   
    150. D(C   9,C   8,C   7,C   0)      0.0235         0.026907   
    151. D(C   9,C   8,C   7,H  28)   -166.2672         0.026907   
    152. D(H  29,C   8,C   7,C   0)    166.3835         0.026907   
    153. D(H  29,C   8,C   7,H  28)      0.0927         0.026907   
    154. D(C  10,C   9,C   8,C   7)    138.3919         0.023421   
    155. D(C  22,C   9,C   8,C   7)    -18.0472         0.023421   
    156. D(C  10,C   9,C   8,H  29)    -27.6768         0.023421   
    157. D(C  22,C   9,C   8,H  29)    175.8841         0.023421   
    158. D(C  11,C  10,C   9,C   8)     21.9400         0.012419   
    159. D(C  21,C  10,C   9,C   8)   -132.6326         0.012419   
    160. D(C  11,C  10,C   9,C  22)    176.6242         0.012419   
    161. D(C  21,C  10,C   9,C  22)     22.0516         0.012419   
    162. D(C  12,C  11,C  10,C   9)   -136.7075         0.022855   
    163. D(C  12,C  11,C  10,C  21)     18.3634         0.022855   
    164. D(H  30,C  11,C  10,C   9)     33.7527         0.022855   
    165. D(H  30,C  11,C  10,C  21)   -171.1764         0.022855   
    166. D(C  13,C  12,C  11,C  10)     -0.1055         0.026358   
    167. D(C  13,C  12,C  11,H  30)   -170.7254         0.026358   
    168. D(H  31,C  12,C  11,C  10)    170.5301         0.026358   
    169. D(H  31,C  12,C  11,H  30)     -0.0899         0.026358   
    170. D(C  14,C  13,C  12,C  11)    137.8705         0.022646   
    171. D(C  20,C  13,C  12,C  11)    -18.3793         0.022646   
    172. D(C  14,C  13,C  12,H  31)    -32.5634         0.022646   
    173. D(C  20,C  13,C  12,H  31)    171.1868         0.022646   
    174. D(C  15,C  14,C  13,C  12)    -10.9310         0.012368   
    175. D(C  19,C  14,C  13,C  12)   -166.2131         0.012368   
    176. D(C  15,C  14,C  13,C  20)    144.5477         0.012368   
    177. D(C  19,C  14,C  13,C  20)    -10.7345         0.012368   
    178. D(C  16,C  15,C  14,C  13)   -138.2422         0.023048   
    179. D(C  16,C  15,C  14,C  19)     18.5202         0.023048   
    180. D(H  32,C  15,C  14,C  13)     30.1205         0.023048   
    181. D(H  32,C  15,C  14,C  19)   -173.1171         0.023048   
    182. D(C  17,C  16,C  15,C  14)      1.4473         0.026839   
    183. D(C  17,C  16,C  15,H  32)   -167.2006         0.026839   
    184. D(H  33,C  16,C  15,C  14)    170.3473         0.026839   
    185. D(H  33,C  16,C  15,H  32)      1.6993         0.026839   
    186. D(C  18,C  17,C  16,C  15)    -19.9444         0.022940   
    187. D(C  18,C  17,C  16,H  33)    171.4648         0.022940   
    188. D(H  41,C  17,C  16,C  15)    171.6136         0.022940   
    189. D(H  41,C  17,C  16,H  33)      3.0228         0.022940   
    190. D(C  19,C  18,C  17,C  16)     18.5677         0.022900   
    191. D(H  34,C  18,C  17,C  16)   -172.3550         0.022900   
    192. D(C  19,C  18,C  17,H  41)   -172.9811         0.022900   
    193. D(H  34,C  18,C  17,H  41)     -3.9039         0.022900   
    194. D(C  18,C  19,C  14,C  13)    136.4599         0.022890   
    195. D(C  18,C  19,C  14,C  15)    -19.8852         0.022890   
    196. D(H  35,C  19,C  14,C  13)    -32.7044         0.022890   
    197. D(H  35,C  19,C  14,C  15)    170.9505         0.022890   
    198. D(C  14,C  19,C  18,C  17)      1.3755         0.026722   
    199. D(C  14,C  19,C  18,H  34)   -167.9748         0.026722   
    200. D(H  35,C  19,C  18,C  17)    170.8016         0.026722   
    201. D(H  35,C  19,C  18,H  34)      1.4514         0.026722   
    202. D(C  21,C  20,C  13,C  12)     18.6867         0.023210   
    203. D(C  21,C  20,C  13,C  14)   -138.4235         0.023210   
    204. D(H  36,C  20,C  13,C  12)   -174.4835         0.023210   
    205. D(H  36,C  20,C  13,C  14)     28.4062         0.023210   
    206. D(C  20,C  21,C  10,C   9)    138.2415         0.023398   
    207. D(C  20,C  21,C  10,C  11)    -18.1172         0.023398   
    208. D(H  37,C  21,C  10,C   9)    -28.3804         0.023398   
    209. D(H  37,C  21,C  10,C  11)    175.2610         0.023398   
    210. D(C  10,C  21,C  20,C  13)     -0.4663         0.027027   
    211. D(C  10,C  21,C  20,H  36)   -167.6559         0.027027   
    212. D(H  37,C  21,C  20,C  13)    166.4337         0.027027   
    213. D(H  37,C  21,C  20,H  36)     -0.7559         0.027027   
    214. D(C  23,C  22,C   9,C   8)     18.0477         0.022753   
    215. D(C  23,C  22,C   9,C  10)   -137.0317         0.022753   
    216. D(H  38,C  22,C   9,C   8)   -171.3037         0.022753   
    217. D(H  38,C  22,C   9,C  10)     33.6169         0.022753   
    218. D(C  22,C  23,C   0,C   1)    136.7691         0.022835   
    219. D(C  22,C  23,C   0,C   7)    -17.9232         0.022835   
    220. D(H  39,C  23,C   0,C   1)    -33.8764         0.022835   
    221. D(H  39,C  23,C   0,C   7)    171.4313         0.022835   
    222. D(C   0,C  23,C  22,C   9)     -0.0879         0.026234   
    223. D(C   0,C  23,C  22,H  38)   -170.8834         0.026234   
    224. D(H  39,C  23,C  22,C   9)    170.6928         0.026234   
    225. D(H  39,C  23,C  22,H  38)     -0.1026         0.026234   
    226. I(C   0,C   6,C   2,C   1)    -21.0632         0.035599   
    227. I(C   1,C  23,C   7,C   0)    -21.1023         0.035564   
    228. I(C   1,H  24,C   3,C   2)     11.6209         0.052130   
    229. I(C   2,H  25,C   4,C   3)     11.7494         0.057347   
    230. I(C   3,H  40,C   5,C   4)     -9.2632         0.053540   
    231. I(C   4,H  26,C   6,C   5)      7.8765         0.053193   
    232. I(C   0,H  28,C   8,C   7)     11.7226         0.052056   
    233. I(C   7,H  29,C   9,C   8)     11.9072         0.057141   
    234. I(C   8,C  22,C  10,C   9)    -22.3411         0.054471   
    235. I(C   9,C  21,C  11,C  10)    -20.8369         0.035847   
    236. I(C  10,H  30,C  12,C  11)      8.0416         0.053342   
    237. I(C  11,H  31,C  13,C  12)      8.1865         0.058863   
    238. I(C  12,C  20,C  14,C  13)    -20.6152         0.055657   
    239. I(C  13,C  19,C  15,C  14)    -20.0795         0.036401   
    240. I(C  14,H  32,C  16,C  15)      9.6910         0.052748   
    241. I(C  15,H  33,C  17,C  16)      9.7667         0.058624   
    242. I(C  16,H  41,C  18,C  17)    -10.4656         0.052096   
    243. I(C  17,H  34,C  19,C  18)      9.0929         0.052857   
    244. I(C  13,H  36,C  21,C  20)     10.9414         0.052213   
    245. I(C   9,H  38,C  23,C  22)      7.8931         0.053249   
    -----------------------------------------------------------------

Number of atoms                         .... 42
Number of degrees of freedom            .... 245

         *************************************************************
         *                GEOMETRY OPTIMIZATION CYCLE   1            *
         *************************************************************
---------------------------------
CARTESIAN COORDINATES (ANGSTROEM)
---------------------------------
  C     -3.452440    0.712200    0.112300
  C     -2.854410    2.067000   -0.087770
  C     -2.180790    2.294020   -1.303530
  C     -0.978290    2.991150   -1.337050
  C     -0.394940    3.491070   -0.156240
  C     -1.263000    3.595630    0.953140
  C     -2.468100    2.896110    0.987490
  C     -3.146900    0.051140    1.317720
  C     -2.852670   -1.307900    1.334290
  C     -2.850710   -2.064690    0.146350
  C     -1.750560   -3.060350   -0.028940
  C     -1.025270   -3.587410    1.061510
  C      0.359930   -3.723820    0.999750
  C      1.078790   -3.341450   -0.154950
  C      2.376020   -2.603670   -0.071370
  C      2.794420   -2.071370    1.166140
  C      3.369220   -0.807520    1.249940
  C      3.524920   -0.003220    0.100850
  C      3.484330   -0.703720   -1.123830
  C      2.936100   -1.979970   -1.207000
  C      0.306000   -3.214710   -1.327120
  C     -1.075390   -3.072660   -1.265180
  C     -3.530490   -1.484270   -0.947070
  C     -3.824850   -0.121940   -0.964160
  H     -2.470040    1.740800   -2.191530
  H     -0.396430    2.946550   -2.251890
  H     -0.933730    4.101650    1.857050
  H     -3.032730    2.880270    1.916480
  H     -2.915890    0.629970    2.206500
  H     -2.408990   -1.717030    2.236330
  H     -1.518110   -3.748470    2.016950
  H      0.889060   -3.984550    1.912210
  H      2.505840   -2.555680    2.093910
  H      3.522750   -0.388580    2.239500
  H      3.717610   -0.193820   -2.053560
  H      2.793000   -2.407790   -2.194860
  H      0.786250   -3.012770   -2.278630
  H     -1.591470   -2.756600   -2.166300
  H     -3.697240   -2.061540   -1.853050
  H     -4.208860    0.314830   -1.882820
  H      0.598759    3.925844   -0.149027
  H      3.845398    1.031119    0.160990

----------------------------
CARTESIAN COORDINATES (A.U.)
----------------------------
  NO LB      ZA    FRAG     MASS         X           Y           Z
   0 C     6.0000    0    12.011   -6.524166    1.345863    0.212216
   1 C     6.0000    0    12.011   -5.394053    3.906064   -0.165861
   2 C     6.0000    0    12.011   -4.121096    4.335070   -2.463315
   3 C     6.0000    0    12.011   -1.848700    5.652454   -2.526658
   4 C     6.0000    0    12.011   -0.746328    6.597166   -0.295251
   5 C     6.0000    0    12.011   -2.386724    6.794756    1.801174
   6 C     6.0000    0    12.011   -4.664033    5.472855    1.866086
   7 C     6.0000    0    12.011   -5.946779    0.096641    2.490130
   8 C     6.0000    0    12.011   -5.390765   -2.471573    2.521443
   9 C     6.0000    0    12.011   -5.387061   -3.901699    0.276561
  10 C     6.0000    0    12.011   -3.308079   -5.783223   -0.054689
  11 C     6.0000    0    12.011   -1.937480   -6.779222    2.005963
  12 C     6.0000    0    12.011    0.680169   -7.037000    1.889254
  13 C     6.0000    0    12.011    2.038618   -6.314425   -0.292813
  14 C     6.0000    0    12.011    4.490027   -4.920223   -0.134870
  15 C     6.0000    0    12.011    5.280689   -3.914322    2.203685
  16 C     6.0000    0    12.011    6.366903   -1.525992    2.362044
  17 C     6.0000    0    12.011    6.661133   -0.006085    0.190579
  18 C     6.0000    0    12.011    6.584429   -1.329838   -2.123731
  19 C     6.0000    0    12.011    5.548425   -3.741601   -2.280899
  20 C     6.0000    0    12.011    0.578256   -6.074921   -2.507893
  21 C     6.0000    0    12.011   -2.032193   -5.806486   -2.390844
  22 C     6.0000    0    12.011   -6.671659   -2.804864   -1.789703
  23 C     6.0000    0    12.011   -7.227919   -0.230433   -1.821998
  24 H     1.0000    0     1.008   -4.667699    3.289635   -4.141392
  25 H     1.0000    0     1.008   -0.749144    5.568173   -4.255455
  26 H     1.0000    0     1.008   -1.764494    7.750995    3.509316
  27 H     1.0000    0     1.008   -5.731029    5.442921    3.621622
  28 H     1.0000    0     1.008   -5.510234    1.190471    4.169681
  29 H     1.0000    0     1.008   -4.552331   -3.244716    4.226051
  30 H     1.0000    0     1.008   -2.868812   -7.083582    3.811483
  31 H     1.0000    0     1.008    1.680080   -7.529708    3.613553
  32 H     1.0000    0     1.008    4.735351   -4.829535    3.956916
  33 H     1.0000    0     1.008    6.657033   -0.734310    4.232042
  34 H     1.0000    0     1.008    7.025265   -0.366267   -3.880666
  35 H     1.0000    0     1.008    5.278005   -4.550064   -4.147684
  36 H     1.0000    0     1.008    1.485797   -5.693310   -4.305987
  37 H     1.0000    0     1.008   -3.007442   -5.209219   -4.093714
  38 H     1.0000    0     1.008   -6.986771   -3.895746   -3.501757
  39 H     1.0000    0     1.008   -7.953593    0.594942   -3.558014
  40 H     1.0000    0     1.008    1.131491    7.418770   -0.281620
  41 H     1.0000    0     1.008    7.266749    1.948533    0.304227

--------------------------------
INTERNAL COORDINATES (ANGSTROEM)
--------------------------------
 C      0   0   0     0.000000000000     0.00000000     0.00000000
 C      1   0   0     1.494373087887     0.00000000     0.00000000
 C      2   1   0     1.408323244997   116.94496459     0.00000000
 C      3   2   1     1.390366885861   121.01891143   221.70024825
 C      4   3   2     1.408733290939   121.05545133     0.07249460
 C      5   4   3     1.412510156282   115.47458631   341.92445393
 C      6   5   4     1.393834338399   120.90006211    18.09087082
 C      1   2   3     1.408329645928   116.95709806   129.49536763
 C      8   1   2     1.390624168998   120.98634117   221.81155938
 C      9   8   1     1.408522768471   121.01986464     0.02353366
 C     10   9   8     1.494120290405   117.25915859   138.39187999
 C     11  10   9     1.411707841658   122.44365650    21.93998615
 C     12  11  10     1.393269904110   120.87089659   223.29247592
 C     13  12  11     1.412904316116   121.03525948   359.89454711
 C     14  13  12     1.494694155237   121.96822710   137.87045837
 C     15  14  13     1.410614352011   119.52086942   349.06903242
 C     16  15  14     1.390947268052   121.21814005   221.75784900
 C     17  16  15     1.411222451671   120.95677612     1.44731997
 C     18  17  16     1.411449219951   114.86472197   340.05557580
 C     19  18  17     1.391505459673   121.22377482    18.56770682
 C     14  13  12     1.409698521174   115.14864785   341.62065206
 C     21  14  13     1.390055070204   121.12548647    18.68673622
 C     10   9   8     1.412287336628   115.56190921   341.95278085
 C     23  10   9     1.393873346685   120.85180166    18.04769644
 H      3   2   1     1.085477743162   119.77548923    27.83977084
 H      4   3   2     1.085118631856   117.61197089   166.63199232
 H      6   5   4     1.086981260832   120.09385070   188.74292359
 H      7   6   5     1.087235191943   118.51411844   170.66941343
 H      8   1   2     1.085513554683   119.78014562    27.83375051
 H      9   8   1     1.085318138105   117.69754836   166.38345461
 H     12  11  10     1.087058960130   120.08587577    33.75267165
 H     13  12  11     1.086527469234   118.06282786   170.53005623
 H     16  15  14     1.085629663099   120.16785925    30.12052016
 H     17  16  15     1.085500427499   117.64852262   170.34729424
 H     19  18  17     1.085732674879   120.24810545   187.64497003
 H     20  19  18     1.085990304745   117.87854325   170.80157455
 H     21  14  13     1.084800030513   120.22402909   185.51645100
 H     22  21  14     1.085472129721   117.72592139   166.43370812
 H     23  10   9     1.087127396306   120.05356758   188.69630624
 H     24  23  10     1.087275452036   118.52651487   170.69283044
 H      5   4   3     1.084674218854   121.81528717   172.18848335
 H     18  17  16     1.084518388505   122.07380837   171.61361730

---------------------------
INTERNAL COORDINATES (A.U.)
---------------------------
 C      0   0   0     0.000000000000     0.00000000     0.00000000
 C      1   0   0     2.823955878008     0.00000000     0.00000000
 C      2   1   0     2.661345241080   116.94496459     0.00000000
 C      3   2   1     2.627412639951   121.01891143   221.70024825
 C      4   3   2     2.662120115612   121.05545133     0.07249460
 C      5   4   3     2.669257356755   115.47458631   341.92445393
 C      6   5   4     2.633965175629   120.90006211    18.09087082
 C      1   2   3     2.661357337086   116.95709806   129.49536763
 C      8   1   2     2.627898834617   120.98634117   221.81155938
 C      9   8   1     2.661722285802   121.01986464     0.02353366
 C     10   9   8     2.823478160000   117.25915859   138.39187999
 C     11  10   9     2.667741201844   122.44365650    21.93998615
 C     12  11  10     2.632898549404   120.87089659   223.29247592
 C     13  12  11     2.670002210895   121.03525948   359.89454711
 C     14  13  12     2.824562607371   121.96822710   137.87045837
 C     15  14  13     2.665674805880   119.52086942   349.06903242
 C     16  15  14     2.628509403343   121.21814005   221.75784900
 C     17  16  15     2.666823947699   120.95677612     1.44731997
 C     18  17  16     2.667252477644   114.86472197   340.05557580
 C     19  18  17     2.629564232638   121.22377482    18.56770682
 C     14  13  12     2.663944136413   115.14864785   341.62065206
 C     21  14  13     2.626823393754   121.12548647    18.68673622
 C     10   9   8     2.668836288632   115.56190921   341.95278085
 C     23  10   9     2.634038890608   120.85180166    18.04769644
 H      3   2   1     2.051255659043   119.77548923    27.83977084
 H      4   3   2     2.050577037022   117.61197089   166.63199232
 H      6   5   4     2.054096895677   120.09385070   188.74292359
 H      7   6   5     2.054576755934   118.51411844   170.66941343
 H      8   1   2     2.051323333010   119.78014562    27.83375051
 H      9   8   1     2.050954049196   117.69754836   166.38345461
 H     12  11  10     2.054243726072   120.08587577    33.75267165
 H     13  12  11     2.053239353835   118.06282786   170.53005623
 H     16  15  14     2.051542746118   120.16785925    30.12052016
 H     17  16  15     2.051298526227   117.64852262   170.34729424
 H     19  18  17     2.051737410171   120.24810545   187.64497003
 H     20  19  18     2.052224260062   117.87854325   170.80157455
 H     21  14  13     2.049974967738   120.22402909   185.51645100
 H     22  21  14     2.051245051176   117.72592139   166.43370812
 H     23  10   9     2.054373051702   120.05356758   188.69630624
 H     24  23  10     2.054652836483   118.52651487   170.69283044
 H      5   4   3     2.049737218159   121.81528717   172.18848335
 H     18  17  16     2.049442741476   122.07380837   171.61361730

---------------------
BASIS SET INFORMATION
---------------------
There are 2 groups of distinct atoms

 Group   1 Type C   : 10s4p1d contracted to 3s2p1d pattern {631/31/1}
 Group   2 Type H   : 4s contracted to 2s pattern {31}

Atom   0C    basis set group =>   1
Atom   1C    basis set group =>   1
Atom   2C    basis set group =>   1
Atom   3C    basis set group =>   1
Atom   4C    basis set group =>   1
Atom   5C    basis set group =>   1
Atom   6C    basis set group =>   1
Atom   7C    basis set group =>   1
Atom   8C    basis set group =>   1
Atom   9C    basis set group =>   1
Atom  10C    basis set group =>   1
Atom  11C    basis set group =>   1
Atom  12C    basis set group =>   1
Atom  13C    basis set group =>   1
Atom  14C    basis set group =>   1
Atom  15C    basis set group =>   1
Atom  16C    basis set group =>   1
Atom  17C    basis set group =>   1
Atom  18C    basis set group =>   1
Atom  19C    basis set group =>   1
Atom  20C    basis set group =>   1
Atom  21C    basis set group =>   1
Atom  22C    basis set group =>   1
Atom  23C    basis set group =>   1
Atom  24H    basis set group =>   2
Atom  25H    basis set group =>   2
Atom  26H    basis set group =>   2
Atom  27H    basis set group =>   2
Atom  28H    basis set group =>   2
Atom  29H    basis set group =>   2
Atom  30H    basis set group =>   2
Atom  31H    basis set group =>   2
Atom  32H    basis set group =>   2
Atom  33H    basis set group =>   2
Atom  34H    basis set group =>   2
Atom  35H    basis set group =>   2
Atom  36H    basis set group =>   2
Atom  37H    basis set group =>   2
Atom  38H    basis set group =>   2
Atom  39H    basis set group =>   2
Atom  40H    basis set group =>   2
Atom  41H    basis set group =>   2


           ************************************************************
           *        Program running with 28 parallel MPI-processes    *
           *              working on a common directory               *
           ************************************************************
------------------------------------------------------------------------------
                           ORCA GTO INTEGRAL CALCULATION
------------------------------------------------------------------------------

                         BASIS SET STATISTICS AND STARTUP INFO

 # of primitive gaussian shells          ...  432
 # of primitive gaussian functions       ...  720
 # of contracted shells                  ...  180
 # of contracted basis functions         ...  372
 Highest angular momentum                ...    2
 Maximum contraction depth               ...    6
 Integral package used                   ... LIBINT
 Integral threshhold            Thresh   ...  2.500e-11
 Primitive cut-off              TCut     ...  2.500e-12


------------------------------ INTEGRAL EVALUATION ----------------------------


 * One electron integrals 
 Pre-screening matrix                    ... done
 Shell pair data                         ... done (   0.005 sec)



           ************************************************************
           *        Program running with 28 parallel MPI-processes    *
           *              working on a common directory               *
           ************************************************************
-------------------------------------------------------------------------------
                                 ORCA SCF
-------------------------------------------------------------------------------

------------
SCF SETTINGS
------------
Hamiltonian:
 Density Functional     Method          .... DFT(GTOs)
 Exchange Functional    Exchange        .... B88
   X-Alpha parameter    XAlpha          ....  0.666667
   Becke's b parameter  XBeta           ....  0.004200
 Correlation Functional Correlation     .... LYP
 LDA part of GGA corr.  LDAOpt          .... VWN-5
 Gradients option       PostSCFGGA      .... off
 Hybrid DFT is turned on
   Fraction HF Exchange ScalHFX         ....  0.200000
   Scaling of DF-GGA-X  ScalDFX         ....  0.720000
   Scaling of DF-GGA-C  ScalDFC         ....  0.810000
   Scaling of DF-LDA-C  ScalLDAC        ....  1.000000
   Perturbative correction              ....  0.000000
   Density functional embedding theory  .... OFF
   NL short-range parameter             ....  4.800000


General Settings:
 Integral files         IntName         .... dummy4
 Hartree-Fock type      HFTyp           .... RHF
 Total Charge           Charge          ....    0
 Multiplicity           Mult            ....    1
 Number of Electrons    NEL             ....  162
 Basis Dimension        Dim             ....  372
 Nuclear Repulsion      ENuc            ....   1796.6448559757 Eh

Convergence Acceleration:
 DIIS                   CNVDIIS         .... on
   Start iteration      DIISMaxIt       ....    12
   Startup error        DIISStart       ....  0.200000
   # of expansion vecs  DIISMaxEq       ....     5
   Bias factor          DIISBfac        ....   1.050
   Max. coefficient     DIISMaxC        ....  10.000
 Newton-Raphson         CNVNR           .... off
 SOSCF                  CNVSOSCF        .... on
   Start iteration      SOSCFMaxIt      ....   150
   Startup grad/error   SOSCFStart      ....  0.003300
 Level Shifting         CNVShift        .... on
   Level shift para.    LevelShift      ....    0.2500
   Turn off err/grad.   ShiftErr        ....    0.0010
 Zerner damping         CNVZerner       .... off
 Static damping         CNVDamp         .... on
   Fraction old density DampFac         ....    0.7000
   Max. Damping (<1)    DampMax         ....    0.9800
   Min. Damping (>=0)   DampMin         ....    0.0000
   Turn off err/grad.   DampErr         ....    0.1000
 Fernandez-Rico         CNVRico         .... off

SCF Procedure:
 Maximum # iterations   MaxIter         ....   125
 SCF integral mode      SCFMode         .... Direct
   Integral package                     .... LIBINT
 Reset frequency        DirectResetFreq ....    20
 Integral Threshold     Thresh          ....  2.500e-11 Eh
 Primitive CutOff       TCut            ....  2.500e-12 Eh

Convergence Tolerance:
 Convergence Check Mode ConvCheckMode   .... Total+1el-Energy
 Convergence forced     ConvForced      .... 0
 Energy Change          TolE            ....  1.000e-08 Eh
 1-El. energy change                    ....  1.000e-05 Eh
 Orbital Gradient       TolG            ....  1.000e-05
 Orbital Rotation angle TolX            ....  1.000e-05
 DIIS Error             TolErr          ....  5.000e-07


Diagonalization of the overlap matrix:
Smallest eigenvalue                        ... 4.642e-04
Time for diagonalization                   ...    0.020 sec
Threshold for overlap eigenvalues          ... 1.000e-08
Number of eigenvalues below threshold      ... 0
Time for construction of square roots      ...    0.015 sec
Total time needed                          ...    0.036 sec

-------------------
DFT GRID GENERATION
-------------------

General Integration Accuracy     IntAcc      ...  4.340
Radial Grid Type                 RadialGrid  ... Gauss-Chebyshev
Angular Grid (max. acc.)         AngularGrid ... Lebedev-110
Angular grid pruning method      GridPruning ... 3 (G Style)
Weight generation scheme         WeightScheme... Becke
Basis function cutoff            BFCut       ...    1.0000e-11
Integration weight cutoff        WCut        ...    1.0000e-14
Grids for H and He will be reduced by one unit

# of grid points (after initial pruning)     ...  54036 (   0.0 sec)
# of grid points (after weights+screening)   ...  47863 (   0.0 sec)
nearest neighbour list constructed           ...    0.0 sec
Grid point re-assignment to atoms done       ...    0.0 sec
Grid point division into batches done        ...    0.0 sec
Reduced shell lists constructed in    0.1 sec

Total number of grid points                  ...    47863
Total number of batches                      ...      768
Average number of points per batch           ...       62
Average number of grid points per atom       ...     1140
Average number of shells per batch           ...    92.21 (51.23%)
Average number of basis functions per batch  ...   193.31 (51.97%)
Average number of large shells per batch     ...    63.59 (68.96%)
Average number of large basis fcns per batch ...   136.21 (70.46%)
Maximum spatial batch extension              ...  16.33,  8.83,  7.56 au
Average spatial batch extension              ...   0.11,  0.09,  0.08 au

Time for grid setup =    0.127 sec

------------------------------
INITIAL GUESS: MODEL POTENTIAL
------------------------------
Loading Hartree-Fock densities                     ... done
Calculating cut-offs                               ... done
Setting up the integral package                    ... done
Initializing the effective Hamiltonian             ... done
Starting the Coulomb interaction                   ... done (   0.0 sec)
Reading the grid                                   ... done
Mapping shells                                     ... done
Starting the XC term evaluation                    ... done (   0.0 sec)
  promolecular density results
     # of electrons  =    161.975648374
     EX              =   -128.702071323
     EC              =     -5.423643307
     EX+EC           =   -134.125714630
Transforming the Hamiltonian                       ... done (   0.0 sec)
Diagonalizing the Hamiltonian                      ... done (   0.0 sec)
Back transforming the eigenvectors                 ... done (   0.0 sec)
Now organizing SCF variables                       ... done
                      ------------------
                      INITIAL GUESS DONE (   0.3 sec)
                      ------------------
--------------
SCF ITERATIONS
--------------
ITER       Energy         Delta-E        Max-DP      RMS-DP      [F,P]     Damp
               ***  Starting incremental Fock matrix formation  ***
  0   -924.2061481226   0.000000000000 0.04015051  0.00138545  0.1118111 0.7000
  1   -924.4116679970  -0.205519874392 0.03137338  0.00102993  0.0610437 0.7000
                               ***Turning on DIIS***
  2   -924.5056094696  -0.093941472614 0.05508764  0.00178044  0.0276454 0.0000
  3   -924.6408544997  -0.135245030129 0.02490365  0.00075772  0.0368814 0.0000
  4   -924.6733700574  -0.032515557631 0.00919765  0.00021117  0.0070140 0.0000
                      *** Initiating the SOSCF procedure ***
                           *** Shutting down DIIS ***
                      *** Re-Reading the Fockian *** 
                      *** Removing any level shift *** 
ITER      Energy       Delta-E        Grad      Rot      Max-DP    RMS-DP
  5   -924.67500424  -0.0016341785  0.000731  0.000731  0.002794  0.000064
               *** Restarting incremental Fock matrix formation ***
  6   -924.67507220  -0.0000679617  0.000355  0.001689  0.001377  0.000040
  7   -924.67506159   0.0000106060  0.000615  0.000932  0.000899  0.000021
  8   -924.67508203  -0.0000204386  0.000112  0.000355  0.000505  0.000011
  9   -924.67508085   0.0000011760  0.000162  0.000296  0.000357  0.000006
 10   -924.67508267  -0.0000018118  0.000032  0.000183  0.000139  0.000003
 11   -924.67508258   0.0000000815  0.000045  0.000104  0.000099  0.000002
 12   -924.67508272  -0.0000001388  0.000005  0.000014  0.000021  0.000001
 13   -924.67508272   0.0000000012  0.000007  0.000009  0.000012  0.000000
                  ***Gradient check signals convergence***
              ***Rediagonalizing the Fockian in SOSCF/NRSCF***

               *****************************************************
               *                     SUCCESS                       *
               *           SCF CONVERGED AFTER  14 CYCLES          *
               *****************************************************

Setting up the final grid:

General Integration Accuracy     IntAcc      ...  4.670
Radial Grid Type                 RadialGrid  ... Gauss-Chebyshev
Angular Grid (max. acc.)         AngularGrid ... Lebedev-302
Angular grid pruning method      GridPruning ... 3 (G Style)
Weight generation scheme         WeightScheme... Becke
Basis function cutoff            BFCut       ...    1.0000e-11
Integration weight cutoff        WCut        ...    1.0000e-14
Grids for H and He will be reduced by one unit

# of grid points (after initial pruning)     ... 210180 (   0.0 sec)
# of grid points (after weights+screening)   ... 181700 (   0.1 sec)
nearest neighbour list constructed           ...    0.0 sec
Grid point re-assignment to atoms done       ...    0.0 sec
Grid point division into batches done        ...    0.6 sec
Reduced shell lists constructed in    0.7 sec

Total number of grid points                  ...   181700
Total number of batches                      ...     2863
Average number of points per batch           ...       63
Average number of grid points per atom       ...     4326
Average number of shells per batch           ...    87.62 (48.68%)
Average number of basis functions per batch  ...   182.77 (49.13%)
Average number of large shells per batch     ...    59.37 (67.76%)
Average number of large basis fcns per batch ...   127.67 (69.85%)
Maximum spatial batch extension              ...  13.48,  5.43,  6.14 au
Average spatial batch extension              ...   0.06,  0.05,  0.05 au

Final grid set up in    0.9 sec
Final integration                            ... done (   0.2 sec)
Change in XC energy                          ...    -0.002039563
Integrated number of electrons               ...   161.999943777
Previous integrated no of electrons          ...   161.985927911

----------------
TOTAL SCF ENERGY
----------------

Total Energy       :         -924.67712229 Eh          -25161.74370 eV

Components:
Nuclear Repulsion  :         1796.64485598 Eh           48889.19201 eV
Electronic Energy  :        -2721.32197827 Eh          -74050.93571 eV
One Electron Energy:        -4819.07226987 Eh         -131133.62317 eV
Two Electron Energy:         2097.75029161 Eh           57082.68746 eV

Virial components:
Potential Energy   :        -1843.84024407 Eh          -50173.44381 eV
Kinetic Energy     :          919.16312178 Eh           25011.70011 eV
Virial Ratio       :            2.00599894


DFT components:
N(Alpha)           :       80.999971888276 electrons
N(Beta)            :       80.999971888276 electrons
N(Total)           :      161.999943776551 electrons
E(X)               :     -103.888350506486 Eh       
E(C)               :       -6.399195765746 Eh       
E(XC)              :     -110.287546272232 Eh       
DFET-embed. en.    :        0.000000000000 Eh       

---------------
SCF CONVERGENCE
---------------

  Last Energy change         ...   -5.0322e-09  Tolerance :   1.0000e-08
  Last MAX-Density change    ...    2.6540e-06  Tolerance :   1.0000e-07
  Last RMS-Density change    ...    6.4990e-08  Tolerance :   5.0000e-09
  Last Orbital Gradient      ...    4.9059e-07  Tolerance :   1.0000e-05
  Last Orbital Rotation      ...    2.0711e-06  Tolerance :   1.0000e-05

             **** THE GBW FILE WAS UPDATED (dummy4.gbw) ****
             **** DENSITY FILE WAS UPDATED (dummy4.scfp) ****
             **** ENERGY FILE WAS UPDATED (dummy4.en.tmp) ****
             **** THE GBW FILE WAS UPDATED (dummy4.gbw) ****
             **** DENSITY FILE WAS UPDATED (dummy4.scfp) ****
----------------
ORBITAL ENERGIES
----------------

  NO   OCC          E(Eh)            E(eV) 
   0   2.0000     -10.194447      -277.4050 
   1   2.0000     -10.193972      -277.3921 
   2   2.0000     -10.193800      -277.3874 
   3   2.0000     -10.193555      -277.3807 
   4   2.0000     -10.193336      -277.3748 
   5   2.0000     -10.193090      -277.3681 
   6   2.0000     -10.181702      -277.0582 
   7   2.0000     -10.181557      -277.0543 
   8   2.0000     -10.181081      -277.0413 
   9   2.0000     -10.180941      -277.0375 
  10   2.0000     -10.180863      -277.0354 
  11   2.0000     -10.180523      -277.0261 
  12   2.0000     -10.180249      -277.0187 
  13   2.0000     -10.180064      -277.0136 
  14   2.0000     -10.180057      -277.0134 
  15   2.0000     -10.179792      -277.0062 
  16   2.0000     -10.179791      -277.0062 
  17   2.0000     -10.179715      -277.0041 
  18   2.0000     -10.179356      -276.9944 
  19   2.0000     -10.179140      -276.9885 
  20   2.0000     -10.177586      -276.9462 
  21   2.0000     -10.177249      -276.9370 
  22   2.0000     -10.177224      -276.9363 
  23   2.0000     -10.177100      -276.9330 
  24   2.0000      -0.869830       -23.6693 
  25   2.0000      -0.859933       -23.4000 
  26   2.0000      -0.845700       -23.0127 
  27   2.0000      -0.832676       -22.6583 
  28   2.0000      -0.784667       -21.3519 
  29   2.0000      -0.757182       -20.6040 
  30   2.0000      -0.747924       -20.3520 
  31   2.0000      -0.742277       -20.1984 
  32   2.0000      -0.735631       -20.0175 
  33   2.0000      -0.732034       -19.9197 
  34   2.0000      -0.725704       -19.7474 
  35   2.0000      -0.696332       -18.9482 
  36   2.0000      -0.630932       -17.1685 
  37   2.0000      -0.620065       -16.8728 
  38   2.0000      -0.603998       -16.4356 
  39   2.0000      -0.603834       -16.4311 
  40   2.0000      -0.584258       -15.8985 
  41   2.0000      -0.579247       -15.7621 
  42   2.0000      -0.569612       -15.4999 
  43   2.0000      -0.564009       -15.3475 
  44   2.0000      -0.529258       -14.4018 
  45   2.0000      -0.517780       -14.0895 
  46   2.0000      -0.498359       -13.5610 
  47   2.0000      -0.478455       -13.0194 
  48   2.0000      -0.476468       -12.9654 
  49   2.0000      -0.463924       -12.6240 
  50   2.0000      -0.445733       -12.1290 
  51   2.0000      -0.444339       -12.0911 
  52   2.0000      -0.438414       -11.9299 
  53   2.0000      -0.429184       -11.6787 
  54   2.0000      -0.424971       -11.5640 
  55   2.0000      -0.421681       -11.4745 
  56   2.0000      -0.416400       -11.3308 
  57   2.0000      -0.415765       -11.3135 
  58   2.0000      -0.414143       -11.2694 
  59   2.0000      -0.408440       -11.1142 
  60   2.0000      -0.404819       -11.0157 
  61   2.0000      -0.394659       -10.7392 
  62   2.0000      -0.387491       -10.5442 
  63   2.0000      -0.375765       -10.2251 
  64   2.0000      -0.371075       -10.0975 
  65   2.0000      -0.352709        -9.5977 
  66   2.0000      -0.340044        -9.2531 
  67   2.0000      -0.338081        -9.1996 
  68   2.0000      -0.334279        -9.0962 
  69   2.0000      -0.327723        -8.9178 
  70   2.0000      -0.324541        -8.8312 
  71   2.0000      -0.324060        -8.8181 
  72   2.0000      -0.316547        -8.6137 
  73   2.0000      -0.283205        -7.7064 
  74   2.0000      -0.253196        -6.8898 
  75   2.0000      -0.250964        -6.8291 
  76   2.0000      -0.246552        -6.7090 
  77   2.0000      -0.240189        -6.5359 
  78   2.0000      -0.237008        -6.4493 
  79   2.0000      -0.214828        -5.8458 
  80   2.0000      -0.182383        -4.9629 
  81   0.0000      -0.053349        -1.4517 
  82   0.0000      -0.023106        -0.6288 
  83   0.0000      -0.011785        -0.3207 
  84   0.0000      -0.001112        -0.0303 
  85   0.0000       0.011552         0.3144 
  86   0.0000       0.014053         0.3824 
  87   0.0000       0.024769         0.6740 
  88   0.0000       0.031571         0.8591 
  89   0.0000       0.087979         2.3940 
  90   0.0000       0.091330         2.4852 
  91   0.0000       0.093181         2.5356 
  92   0.0000       0.115053         3.1307 
  93   0.0000       0.115504         3.1430 
  94   0.0000       0.117646         3.2013 
  95   0.0000       0.127705         3.4750 
  96   0.0000       0.133463         3.6317 
  97   0.0000       0.140229         3.8158 
  98   0.0000       0.144800         3.9402 
  99   0.0000       0.145579         3.9614 
 100   0.0000       0.149964         4.0807 
 101   0.0000       0.166308         4.5255 
 102   0.0000       0.167733         4.5642 
 103   0.0000       0.179140         4.8747 
 104   0.0000       0.181643         4.9428 
 105   0.0000       0.192055         5.2261 
 106   0.0000       0.201073         5.4715 
 107   0.0000       0.215318         5.8591 
 108   0.0000       0.231829         6.3084 
 109   0.0000       0.238538         6.4910 
 110   0.0000       0.260008         7.0752 
 111   0.0000       0.261252         7.1090 
 112   0.0000       0.269053         7.3213 
 113   0.0000       0.271940         7.3999 
 114   0.0000       0.280285         7.6270 
 115   0.0000       0.280985         7.6460 
 116   0.0000       0.288514         7.8509 
 117   0.0000       0.291220         7.9245 
 118   0.0000       0.303478         8.2581 
 119   0.0000       0.305390         8.3101 
 120   0.0000       0.321452         8.7472 
 121   0.0000       0.340863         9.2754 
 122   0.0000       0.346701         9.4342 
 123   0.0000       0.364256         9.9119 
 124   0.0000       0.367587        10.0025 
 125   0.0000       0.369804        10.0629 
 126   0.0000       0.383703        10.4411 
 127   0.0000       0.390902        10.6370 
 128   0.0000       0.395095        10.7511 
 129   0.0000       0.433213        11.7883 
 130   0.0000       0.456224        12.4145 
 131   0.0000       0.486853        13.2480 
 132   0.0000       0.499575        13.5941 
 133   0.0000       0.501180        13.6378 
 134   0.0000       0.511185        13.9100 
 135   0.0000       0.525298        14.2941 
 136   0.0000       0.530219        14.4280 
 137   0.0000       0.533710        14.5230 
 138   0.0000       0.544024        14.8036 
 139   0.0000       0.546914        14.8823 
 140   0.0000       0.549751        14.9595 
 141   0.0000       0.551762        15.0142 
 142   0.0000       0.557807        15.1787 
 143   0.0000       0.559408        15.2223 
 144   0.0000       0.573311        15.6006 
 145   0.0000       0.575232        15.6529 
 146   0.0000       0.577425        15.7125 
 147   0.0000       0.581675        15.8282 
 148   0.0000       0.585225        15.9248 
 149   0.0000       0.586843        15.9688 
 150   0.0000       0.589777        16.0486 
 151   0.0000       0.591630        16.0991 
 152   0.0000       0.598721        16.2920 
 153   0.0000       0.601162        16.3584 
 154   0.0000       0.605083        16.4652 
 155   0.0000       0.605477        16.4759 
 156   0.0000       0.607511        16.5312 
 157   0.0000       0.611679        16.6446 
 158   0.0000       0.613800        16.7023 
 159   0.0000       0.616138        16.7660 
 160   0.0000       0.625381        17.0175 
 161   0.0000       0.626459        17.0468 
 162   0.0000       0.629066        17.1178 
 163   0.0000       0.630651        17.1609 
 164   0.0000       0.633411        17.2360 
 165   0.0000       0.635846        17.3023 
 166   0.0000       0.638667        17.3790 
 167   0.0000       0.646510        17.5924 
 168   0.0000       0.650943        17.7131 
 169   0.0000       0.658581        17.9209 
 170   0.0000       0.661541        18.0014 
 171   0.0000       0.667259        18.1570 
 172   0.0000       0.668384        18.1877 
 173   0.0000       0.678479        18.4624 
 174   0.0000       0.686955        18.6930 
 175   0.0000       0.689625        18.7657 
 176   0.0000       0.698923        19.0187 
 177   0.0000       0.706419        19.2226 
 178   0.0000       0.709532        19.3073 
 179   0.0000       0.716066        19.4851 
 180   0.0000       0.744079        20.2474 
 181   0.0000       0.755359        20.5544 
 182   0.0000       0.775004        21.0889 
 183   0.0000       0.794961        21.6320 
 184   0.0000       0.823066        22.3968 
 185   0.0000       0.826181        22.4815 
 186   0.0000       0.830331        22.5945 
 187   0.0000       0.832754        22.6604 
 188   0.0000       0.836810        22.7708 
 189   0.0000       0.839998        22.8575 
 190   0.0000       0.841911        22.9096 
 191   0.0000       0.848386        23.0857 
 192   0.0000       0.851592        23.1730 
 193   0.0000       0.854058        23.2401 
 194   0.0000       0.870204        23.6795 
 195   0.0000       0.872001        23.7284 
 196   0.0000       0.884530        24.0693 
 197   0.0000       0.888452        24.1760 
 198   0.0000       0.895353        24.3638 
 199   0.0000       0.903762        24.5926 
 200   0.0000       0.909716        24.7546 
 201   0.0000       0.916876        24.9495 
 202   0.0000       0.919479        25.0203 
 203   0.0000       0.926537        25.2124 
 204   0.0000       0.928679        25.2707 
 205   0.0000       0.935693        25.4615 
 206   0.0000       0.936539        25.4845 
 207   0.0000       0.939665        25.5696 
 208   0.0000       0.944640        25.7050 
 209   0.0000       0.948745        25.8167 
 210   0.0000       0.955708        26.0061 
 211   0.0000       0.961742        26.1703 
 212   0.0000       0.970988        26.4219 
 213   0.0000       0.992828        27.0162 
 214   0.0000       1.005950        27.3733 
 215   0.0000       1.010493        27.4969 
 216   0.0000       1.018867        27.7248 
 217   0.0000       1.024723        27.8841 
 218   0.0000       1.029996        28.0276 
 219   0.0000       1.033240        28.1159 
 220   0.0000       1.037897        28.2426 
 221   0.0000       1.056404        28.7462 
 222   0.0000       1.069251        29.0958 
 223   0.0000       1.072398        29.1814 
 224   0.0000       1.081285        29.4233 
 225   0.0000       1.087530        29.5932 
 226   0.0000       1.108067        30.1520 
 227   0.0000       1.128682        30.7130 
 228   0.0000       1.149162        31.2703 
 229   0.0000       1.160299        31.5733 
 230   0.0000       1.163718        31.6664 
 231   0.0000       1.184319        32.2270 
 232   0.0000       1.189646        32.3719 
 233   0.0000       1.198511        32.6131 
 234   0.0000       1.209659        32.9165 
 235   0.0000       1.216926        33.1142 
 236   0.0000       1.227331        33.3974 
 237   0.0000       1.240898        33.7665 
 238   0.0000       1.256935        34.2029 
 239   0.0000       1.275201        34.7000 
 240   0.0000       1.289417        35.0868 
 241   0.0000       1.312721        35.7210 
 242   0.0000       1.343269        36.5522 
 243   0.0000       1.351618        36.7794 
 244   0.0000       1.359303        36.9885 
 245   0.0000       1.376204        37.4484 
 246   0.0000       1.383744        37.6536 
 247   0.0000       1.395016        37.9603 
 248   0.0000       1.408148        38.3177 
 249   0.0000       1.414174        38.4816 
 250   0.0000       1.434759        39.0418 
 251   0.0000       1.446888        39.3718 
 252   0.0000       1.464797        39.8591 
 253   0.0000       1.471818        40.0502 
 254   0.0000       1.485068        40.4108 
 255   0.0000       1.498931        40.7880 
 256   0.0000       1.501937        40.8698 
 257   0.0000       1.504620        40.9428 
 258   0.0000       1.514505        41.2118 
 259   0.0000       1.521554        41.4036 
 260   0.0000       1.527720        41.5714 
 261   0.0000       1.532594        41.7040 
 262   0.0000       1.535411        41.7807 
 263   0.0000       1.576577        42.9008 
 264   0.0000       1.598016        43.4842 
 265   0.0000       1.604815        43.6692 
 266   0.0000       1.622202        44.1424 
 267   0.0000       1.634587        44.4794 
 268   0.0000       1.642398        44.6919 
 269   0.0000       1.657422        45.1007 
 270   0.0000       1.662990        45.2522 
 271   0.0000       1.680778        45.7363 
 272   0.0000       1.736091        47.2414 
 273   0.0000       1.761025        47.9199 
 274   0.0000       1.790712        48.7277 
 275   0.0000       1.804442        49.1014 
 276   0.0000       1.807913        49.1958 
 277   0.0000       1.815316        49.3973 
 278   0.0000       1.833229        49.8847 
 279   0.0000       1.851865        50.3918 
 280   0.0000       1.857390        50.5422 
 281   0.0000       1.860737        50.6332 
 282   0.0000       1.864809        50.7440 
 283   0.0000       1.883141        51.2429 
 284   0.0000       1.889209        51.4080 
 285   0.0000       1.900958        51.7277 
 286   0.0000       1.906850        51.8880 
 287   0.0000       1.941399        52.8282 
 288   0.0000       1.984732        54.0073 
 289   0.0000       1.990993        54.1777 
 290   0.0000       1.995333        54.2958 
 291   0.0000       2.000112        54.4258 
 292   0.0000       2.001432        54.4617 
 293   0.0000       2.008353        54.6501 
 294   0.0000       2.013030        54.7773 
 295   0.0000       2.016661        54.8761 
 296   0.0000       2.022189        55.0266 
 297   0.0000       2.034323        55.3567 
 298   0.0000       2.040844        55.5342 
 299   0.0000       2.043667        55.6110 
 300   0.0000       2.070958        56.3536 
 301   0.0000       2.087900        56.8146 
 302   0.0000       2.096297        57.0431 
 303   0.0000       2.102504        57.2120 
 304   0.0000       2.106049        57.3085 
 305   0.0000       2.110283        57.4237 
 306   0.0000       2.124829        57.8195 
 307   0.0000       2.151161        58.5361 
 308   0.0000       2.168287        59.0021 
 309   0.0000       2.176911        59.2368 
 310   0.0000       2.180931        59.3462 
 311   0.0000       2.191564        59.6355 
 312   0.0000       2.207980        60.0822 
 313   0.0000       2.211606        60.1809 
 314   0.0000       2.217655        60.3455 
 315   0.0000       2.225279        60.5529 
 316   0.0000       2.235748        60.8378 
 317   0.0000       2.247287        61.1518 
 318   0.0000       2.250447        61.2378 
 319   0.0000       2.265511        61.6477 
 320   0.0000       2.289040        62.2879 
 321   0.0000       2.300722        62.6058 
 322   0.0000       2.304986        62.7219 
 323   0.0000       2.346742        63.8581 
 324   0.0000       2.359603        64.2081 
 325   0.0000       2.378834        64.7314 
 326   0.0000       2.382729        64.8373 
 327   0.0000       2.385648        64.9168 
 328   0.0000       2.399416        65.2914 
 329   0.0000       2.433823        66.2277 
 330   0.0000       2.466189        67.1084 
 331   0.0000       2.493734        67.8580 
 332   0.0000       2.496440        67.9316 
 333   0.0000       2.518517        68.5323 
 334   0.0000       2.532783        68.9205 
 335   0.0000       2.552249        69.4502 
 336   0.0000       2.574861        70.0655 
 337   0.0000       2.578083        70.1532 
 338   0.0000       2.582841        70.2827 
 339   0.0000       2.590924        70.5026 
 340   0.0000       2.601846        70.7998 
 341   0.0000       2.616300        71.1932 
 342   0.0000       2.632388        71.6309 
 343   0.0000       2.635901        71.7265 
 344   0.0000       2.648522        72.0700 
 345   0.0000       2.665774        72.5394 
 346   0.0000       2.672535        72.7234 
 347   0.0000       2.705156        73.6110 
 348   0.0000       2.708839        73.7113 
 349   0.0000       2.726897        74.2026 
 350   0.0000       2.745002        74.6953 
 351   0.0000       2.747005        74.7498 
 352   0.0000       2.761467        75.1433 
 353   0.0000       2.764164        75.2167 
 354   0.0000       2.774384        75.4948 
 355   0.0000       2.777207        75.5716 
 356   0.0000       2.782198        75.7075 
 357   0.0000       2.783577        75.7450 
 358   0.0000       2.810899        76.4884 
 359   0.0000       2.833161        77.0942 
 360   0.0000       2.870382        78.1071 
 361   0.0000       2.875660        78.2507 
 362   0.0000       2.903069        78.9965 
 363   0.0000       2.932411        79.7950 
 364   0.0000       2.972496        80.8857 
 365   0.0000       3.072880        83.6173 
 366   0.0000       3.156092        85.8816 
 367   0.0000       3.217223        87.5451 
 368   0.0000       3.245770        88.3219 
 369   0.0000       3.306548        89.9758 
 370   0.0000       3.379304        91.9555 
 371   0.0000       3.435019        93.4716 

                    ********************************
                    * MULLIKEN POPULATION ANALYSIS *
                    ********************************

-----------------------
MULLIKEN ATOMIC CHARGES
-----------------------
   0 C :    0.089731
   1 C :    0.082114
   2 C :   -0.154979
   3 C :   -0.133070
   4 C :   -0.117729
   5 C :   -0.130314
   6 C :   -0.186646
   7 C :   -0.160097
   8 C :   -0.162366
   9 C :    0.088811
  10 C :    0.090390
  11 C :   -0.186629
  12 C :   -0.187659
  13 C :    0.096353
  14 C :    0.087791
  15 C :   -0.167374
  16 C :   -0.126266
  17 C :   -0.121164
  18 C :   -0.129100
  19 C :   -0.181910
  20 C :   -0.170298
  21 C :   -0.161156
  22 C :   -0.187986
  23 C :   -0.188608
  24 H :    0.125601
  25 H :    0.127201
  26 H :    0.125434
  27 H :    0.131225
  28 H :    0.129655
  29 H :    0.127916
  30 H :    0.132940
  31 H :    0.133056
  32 H :    0.124470
  33 H :    0.124441
  34 H :    0.124843
  35 H :    0.130244
  36 H :    0.127611
  37 H :    0.127628
  38 H :    0.134206
  39 H :    0.131609
  40 H :    0.129353
  41 H :    0.130729
Sum of atomic charges:    0.0000000

--------------------------------
MULLIKEN REDUCED ORBITAL CHARGES
--------------------------------
  0 C s       :     3.141227  s :     3.141227
      pz      :     0.871821  p :     2.727469
      px      :     0.955942
      py      :     0.899705
      dz2     :     0.009829  d :     0.041574
      dxz     :     0.006455
      dyz     :     0.012078
      dx2y2   :     0.005924
      dxy     :     0.007289
  1 C s       :     3.148825  s :     3.148825
      pz      :     0.872344  p :     2.727207
      px      :     0.945662
      py      :     0.909200
      dz2     :     0.010016  d :     0.041853
      dxz     :     0.008270
      dyz     :     0.010361
      dx2y2   :     0.007208
      dxy     :     0.005999
  2 C s       :     3.185727  s :     3.185727
      pz      :     0.974565  p :     2.932899
      px      :     0.979772
      py      :     0.978563
      dz2     :     0.008535  d :     0.036353
      dxz     :     0.008859
      dyz     :     0.008405
      dx2y2   :     0.005377
      dxy     :     0.005177
  3 C s       :     3.191790  s :     3.191790
      pz      :     0.970701  p :     2.904559
      px      :     0.952358
      py      :     0.981500
      dz2     :     0.008822  d :     0.036721
      dxz     :     0.012545
      dyz     :     0.004286
      dx2y2   :     0.005817
      dxy     :     0.005252
  4 C s       :     3.191541  s :     3.191541
      pz      :     0.941939  p :     2.890847
      px      :     0.976991
      py      :     0.971916
      dz2     :     0.009941  d :     0.035341
      dxz     :     0.009426
      dyz     :     0.005616
      dx2y2   :     0.004723
      dxy     :     0.005636
  5 C s       :     3.196266  s :     3.196266
      pz      :     0.959719  p :     2.897613
      px      :     0.938711
      py      :     0.999183
      dz2     :     0.008211  d :     0.036434
      dxz     :     0.009175
      dyz     :     0.006678
      dx2y2   :     0.005973
      dxy     :     0.006398
  6 C s       :     3.195885  s :     3.195885
      pz      :     0.982387  p :     2.955051
      px      :     0.980627
      py      :     0.992037
      dz2     :     0.008070  d :     0.035710
      dxz     :     0.010711
      dyz     :     0.005314
      dx2y2   :     0.006266
      dxy     :     0.005350
  7 C s       :     3.192510  s :     3.192510
      pz      :     0.972382  p :     2.930805
      px      :     0.991772
      py      :     0.966651
      dz2     :     0.008491  d :     0.036782
      dxz     :     0.003806
      dyz     :     0.013513
      dx2y2   :     0.005135
      dxy     :     0.005837
  8 C s       :     3.194541  s :     3.194541
      pz      :     0.972207  p :     2.931136
      px      :     0.992406
      py      :     0.966523
      dz2     :     0.008556  d :     0.036689
      dxz     :     0.005662
      dyz     :     0.011421
      dx2y2   :     0.005119
      dxy     :     0.005932
  9 C s       :     3.141701  s :     3.141701
      pz      :     0.872973  p :     2.727886
      px      :     0.920677
      py      :     0.934236
      dz2     :     0.009812  d :     0.041602
      dxz     :     0.008328
      dyz     :     0.010084
      dx2y2   :     0.006466
      dxy     :     0.006912
 10 C s       :     3.141938  s :     3.141938
      pz      :     0.865668  p :     2.726023
      px      :     0.925081
      py      :     0.935275
      dz2     :     0.010025  d :     0.041649
      dxz     :     0.011046
      dyz     :     0.007820
      dx2y2   :     0.005918
      dxy     :     0.006840
 11 C s       :     3.202119  s :     3.202119
      pz      :     0.984090  p :     2.948292
      px      :     0.965012
      py      :     0.999190
      dz2     :     0.008825  d :     0.036219
      dxz     :     0.012214
      dyz     :     0.003378
      dx2y2   :     0.005677
      dxy     :     0.006125
 12 C s       :     3.201482  s :     3.201482
      pz      :     0.982258  p :     2.949936
      px      :     0.966618
      py      :     1.001061
      dz2     :     0.008256  d :     0.036241
      dxz     :     0.012714
      dyz     :     0.003792
      dx2y2   :     0.005166
      dxy     :     0.006313
 13 C s       :     3.137965  s :     3.137965
      pz      :     0.861966  p :     2.724351
      px      :     0.906427
      py      :     0.955958
      dz2     :     0.009908  d :     0.041331
      dxz     :     0.011873
      dyz     :     0.006694
      dx2y2   :     0.005669
      dxy     :     0.007187
 14 C s       :     3.146884  s :     3.146884
      pz      :     0.859423  p :     2.723647
      px      :     0.925169
      py      :     0.939054
      dz2     :     0.010216  d :     0.041679
      dxz     :     0.009926
      dyz     :     0.009178
      dx2y2   :     0.006630
      dxy     :     0.005728
 15 C s       :     3.189092  s :     3.189092
      pz      :     0.972572  p :     2.942220
      px      :     0.989347
      py      :     0.980300
      dz2     :     0.009284  d :     0.036063
      dxz     :     0.005706
      dyz     :     0.011236
      dx2y2   :     0.004938
      dxy     :     0.004900
 16 C s       :     3.193213  s :     3.193213
      pz      :     0.966321  p :     2.896381
      px      :     0.990568
      py      :     0.939491
      dz2     :     0.010533  d :     0.036672
      dxz     :     0.003701
      dyz     :     0.011357
      dx2y2   :     0.005462
      dxy     :     0.005620
 17 C s       :     3.192207  s :     3.192207
      pz      :     0.938205  p :     2.893594
      px      :     0.982858
      py      :     0.972531
      dz2     :     0.010156  d :     0.035363
      dxz     :     0.005596
      dyz     :     0.010358
      dx2y2   :     0.005253
      dxy     :     0.003999
 18 C s       :     3.195140  s :     3.195140
      pz      :     0.957296  p :     2.897307
      px      :     0.997317
      py      :     0.942694
      dz2     :     0.009449  d :     0.036654
      dxz     :     0.004310
      dyz     :     0.012225
      dx2y2   :     0.005129
      dxy     :     0.005540
 19 C s       :     3.191966  s :     3.191966
      pz      :     0.981270  p :     2.954015
      px      :     0.996595
      py      :     0.976151
      dz2     :     0.010042  d :     0.035929
      dxz     :     0.004652
      dyz     :     0.010737
      dx2y2   :     0.005393
      dxy     :     0.005106
 20 C s       :     3.194204  s :     3.194204
      pz      :     0.975423  p :     2.939465
      px      :     0.966914
      py      :     0.997128
      dz2     :     0.009471  d :     0.036629
      dxz     :     0.013000
      dyz     :     0.003325
      dx2y2   :     0.004964
      dxy     :     0.005869
 21 C s       :     3.193753  s :     3.193753
      pz      :     0.968859  p :     2.930640
      px      :     0.967259
      py      :     0.994523
      dz2     :     0.008878  d :     0.036764
      dxz     :     0.012888
      dyz     :     0.004465
      dx2y2   :     0.004783
      dxy     :     0.005750
 22 C s       :     3.203978  s :     3.203978
      pz      :     0.985876  p :     2.947851
      px      :     0.994476
      py      :     0.967499
      dz2     :     0.007714  d :     0.036157
      dxz     :     0.003973
      dyz     :     0.012237
      dx2y2   :     0.006206
      dxy     :     0.006028
 23 C s       :     3.206438  s :     3.206438
      pz      :     0.981926  p :     2.945982
      px      :     1.002321
      py      :     0.961736
      dz2     :     0.007876  d :     0.036188
      dxz     :     0.004540
      dyz     :     0.011439
      dx2y2   :     0.005445
      dxy     :     0.006888
 24 H s       :     0.874399  s :     0.874399
 25 H s       :     0.872799  s :     0.872799
 26 H s       :     0.874566  s :     0.874566
 27 H s       :     0.868775  s :     0.868775
 28 H s       :     0.870345  s :     0.870345
[...]
      dxy     :     0.005096
 21 C s       :     3.202644  s :     3.202644
      pz      :     0.980285  p :     2.939860
      px      :     0.974339
      py      :     0.985235
      dz2     :     0.008063  d :     0.036090
      dxz     :     0.007331
      dyz     :     0.009328
      dx2y2   :     0.006101
      dxy     :     0.005267
 22 C s       :     3.202543  s :     3.202543
      pz      :     0.980458  p :     2.940468
      px      :     0.974241
      py      :     0.985768
      dz2     :     0.007878  d :     0.036091
      dxz     :     0.007333
      dyz     :     0.009503
      dx2y2   :     0.006111
      dxy     :     0.005267
 23 C s       :     3.201681  s :     3.201681
      pz      :     0.981279  p :     2.942726
      px      :     0.983553
      py      :     0.977894
      dz2     :     0.007970  d :     0.036100
      dxz     :     0.010265
      dyz     :     0.006412
      dx2y2   :     0.006287
      dxy     :     0.005165
 24 H s       :     0.869037  s :     0.869037
 25 H s       :     0.871954  s :     0.871954
 26 H s       :     0.871142  s :     0.871142
 27 H s       :     0.869410  s :     0.869410
 28 H s       :     0.867847  s :     0.867847
 29 H s       :     0.868067  s :     0.868067
 30 H s       :     0.868046  s :     0.868046
 31 H s       :     0.868058  s :     0.868058
 32 H s       :     0.869245  s :     0.869245
 33 H s       :     0.871268  s :     0.871268
 34 H s       :     0.871623  s :     0.871623
 35 H s       :     0.869055  s :     0.869055
 36 H s       :     0.867688  s :     0.867688
 37 H s       :     0.868387  s :     0.868387
 38 H s       :     0.868193  s :     0.868193
 39 H s       :     0.867699  s :     0.867699
 40 H s       :     0.869859  s :     0.869859
 41 H s       :     0.869954  s :     0.869954


                     *******************************
                     * LOEWDIN POPULATION ANALYSIS *
                     *******************************

----------------------
LOEWDIN ATOMIC CHARGES
----------------------
   0 C :   -0.014890
   1 C :   -0.014623
   2 C :   -0.127844
   3 C :   -0.127584
   4 C :   -0.130956
   5 C :   -0.127900
   6 C :   -0.127658
   7 C :   -0.126099
   8 C :   -0.126070
   9 C :   -0.015573
  10 C :   -0.015620
  11 C :   -0.126080
  12 C :   -0.126010
  13 C :   -0.014938
  14 C :   -0.014577
  15 C :   -0.127719
  16 C :   -0.127907
  17 C :   -0.130898
  18 C :   -0.127707
  19 C :   -0.127813
  20 C :   -0.126183
  21 C :   -0.125923
  22 C :   -0.125983
  23 C :   -0.126194
  24 H :    0.132308
  25 H :    0.131181
  26 H :    0.131283
  27 H :    0.132312
  28 H :    0.133324
  29 H :    0.133143
  30 H :    0.133145
  31 H :    0.133289
  32 H :    0.132331
  33 H :    0.131259
  34 H :    0.131248
  35 H :    0.132303
  36 H :    0.133276
  37 H :    0.133164
  38 H :    0.133199
  39 H :    0.133280
  40 H :    0.131354
  41 H :    0.131349

-------------------------------
LOEWDIN REDUCED ORBITAL CHARGES
-------------------------------
  0 C s       :     2.869337  s :     2.869337
      pz      :     1.053719  p :     3.043685
      px      :     0.997384
      py      :     0.992581
      dz2     :     0.027080  d :     0.101868
      dxz     :     0.023840
      dyz     :     0.021938
      dx2y2   :     0.013737
      dxy     :     0.015273
  1 C s       :     2.869522  s :     2.869522
      pz      :     1.054474  p :     3.043258
      px      :     0.997542
      py      :     0.991241
      dz2     :     0.027442  d :     0.101843
      dxz     :     0.023962
      dyz     :     0.021822
      dx2y2   :     0.013419
      dxy     :     0.015199
  2 C s       :     2.917291  s :     2.917291
      pz      :     1.057014  p :     3.126670
      px      :     1.040031
      py      :     1.029625
      dz2     :     0.018686  d :     0.083883
      dxz     :     0.022442
      dyz     :     0.016231
      dx2y2   :     0.013003
      dxy     :     0.013522
  3 C s       :     2.917352  s :     2.917352
      pz      :     1.062858  p :     3.124606
      px      :     1.034963
      py      :     1.026786
      dz2     :     0.019822  d :     0.085627
      dxz     :     0.019070
      dyz     :     0.019497
      dx2y2   :     0.013363
      dxy     :     0.013875
  4 C s       :     2.918047  s :     2.918047
      pz      :     1.063967  p :     3.127991
      px      :     1.036280
      py      :     1.027743
      dz2     :     0.026829  d :     0.084918
      dxz     :     0.020034
      dyz     :     0.018686
      dx2y2   :     0.005493
      dxy     :     0.013876
  5 C s       :     2.917368  s :     2.917368
      pz      :     1.062959  p :     3.124924
      px      :     1.036401
      py      :     1.025563
      dz2     :     0.019696  d :     0.085609
      dxz     :     0.022328
      dyz     :     0.016659
      dx2y2   :     0.013316
      dxy     :     0.013610
  6 C s       :     2.917334  s :     2.917334
      pz      :     1.057235  p :     3.126426
      px      :     1.036823
      py      :     1.032369
      dz2     :     0.018786  d :     0.083898
      dxz     :     0.018655
      dyz     :     0.019618
      dx2y2   :     0.013005
      dxy     :     0.013833
  7 C s       :     2.916042  s :     2.916042
      pz      :     1.056425  p :     3.125366
      px      :     1.035113
      py      :     1.033828
      dz2     :     0.018500  d :     0.084691
      dxz     :     0.018593
      dyz     :     0.020177
      dx2y2   :     0.013517
      dxy     :     0.013903
  8 C s       :     2.916009  s :     2.916009
      pz      :     1.056584  p :     3.125407
      px      :     1.040170
      py      :     1.028652
      dz2     :     0.018574  d :     0.084654
      dxz     :     0.022306
      dyz     :     0.016117
      dx2y2   :     0.013750
      dxy     :     0.013906
  9 C s       :     2.868835  s :     2.868835
      pz      :     1.053933  p :     3.044635
      px      :     0.997737
      py      :     0.992965
      dz2     :     0.027124  d :     0.102103
      dxz     :     0.023892
      dyz     :     0.021952
      dx2y2   :     0.013820
      dxy     :     0.015316
 10 C s       :     2.868846  s :     2.868846
      pz      :     1.054732  p :     3.044672
      px      :     0.998077
      py      :     0.991863
      dz2     :     0.027294  d :     0.102102
      dxz     :     0.024094
      dyz     :     0.021910
      dx2y2   :     0.013639
      dxy     :     0.015164
 11 C s       :     2.916036  s :     2.916036
      pz      :     1.056890  p :     3.125386
      px      :     1.040515
      py      :     1.027981
      dz2     :     0.018706  d :     0.084657
      dxz     :     0.022623
      dyz     :     0.016189
      dx2y2   :     0.013481
      dxy     :     0.013659
 12 C s       :     2.916049  s :     2.916049
      pz      :     1.057221  p :     3.125270
      px      :     1.035341
      py      :     1.032708
      dz2     :     0.018813  d :     0.084691
      dxz     :     0.018589
      dyz     :     0.019837
      dx2y2   :     0.013495
      dxy     :     0.013957
 13 C s       :     2.869321  s :     2.869321
      pz      :     1.054531  p :     3.043740
      px      :     0.997766
      py      :     0.991443
      dz2     :     0.027252  d :     0.101877
      dxz     :     0.024059
      dyz     :     0.021883
      dx2y2   :     0.013559
      dxy     :     0.015125
 14 C s       :     2.869481  s :     2.869481
      pz      :     1.053635  p :     3.043238
      px      :     0.997176
      py      :     0.992427
      dz2     :     0.027259  d :     0.101858
      dxz     :     0.023742
      dyz     :     0.021886
      dx2y2   :     0.013610
      dxy     :     0.015360
 15 C s       :     2.917337  s :     2.917337
      pz      :     1.056420  p :     3.126486
      px      :     1.036595
      py      :     1.033471
      dz2     :     0.018481  d :     0.083895
      dxz     :     0.018659
      dyz     :     0.019941
      dx2y2   :     0.013030
      dxy     :     0.013785
 16 C s       :     2.917365  s :     2.917365
      pz      :     1.062251  p :     3.124936
      px      :     1.036073
      py      :     1.026611
      dz2     :     0.019588  d :     0.085605
      dxz     :     0.021992
      dyz     :     0.016570
      dx2y2   :     0.013600
      dxy     :     0.013855
 17 C s       :     2.918026  s :     2.918026
      pz      :     1.063352  p :     3.127950
      px      :     1.036000
      py      :     1.028598
      dz2     :     0.026636  d :     0.084922
      dxz     :     0.019802
      dyz     :     0.018785
      dx2y2   :     0.005660
      dxy     :     0.014041
 18 C s       :     2.917337  s :     2.917337
      pz      :     1.062270  p :     3.124749
      px      :     1.034617
      py      :     1.027862
      dz2     :     0.019500  d :     0.085621
      dxz     :     0.019071
      dyz     :     0.019847
      dx2y2   :     0.013371
      dxy     :     0.013832
 19 C s       :     2.917261  s :     2.917261
      pz      :     1.056706  p :     3.126668
      px      :     1.039683
      py      :     1.030279
      dz2     :     0.018570  d :     0.083884
      dxz     :     0.022106
      dyz     :     0.016161
      dx2y2   :     0.013275
      dxy     :     0.013771
 20 C s       :     2.916005  s :     2.916005
      pz      :     1.056998  p :     3.125502
      px      :     1.040623
      py      :     1.027881
      dz2     :     0.018715  d :     0.084676
      dxz     :     0.022638
      dyz     :     0.016169
      dx2y2   :     0.013482
      dxy     :     0.013672
 21 C s       :     2.916069  s :     2.916069
      pz      :     1.057104  p :     3.125177
      px      :     1.035474
      py      :     1.032598
      dz2     :     0.018798  d :     0.084678
      dxz     :     0.018607
      dyz     :     0.019830
      dx2y2   :     0.013497
      dxy     :     0.013947
 22 C s       :     2.916061  s :     2.916061
      pz      :     1.056289  p :     3.125242
      px      :     1.035236
      py      :     1.033717
      dz2     :     0.018491  d :     0.084680
      dxz     :     0.018622
      dyz     :     0.020151
      dx2y2   :     0.013518
      dxy     :     0.013898
 23 C s       :     2.915985  s :     2.915985
      pz      :     1.056683  p :     3.125538
      px      :     1.040300
      py      :     1.028556
      dz2     :     0.018578  d :     0.084671
      dxz     :     0.022311
      dyz     :     0.016105
      dx2y2   :     0.013756
      dxy     :     0.013922
 24 H s       :     0.867692  s :     0.867692
 25 H s       :     0.868819  s :     0.868819
 26 H s       :     0.868717  s :     0.868717
 27 H s       :     0.867688  s :     0.867688
 28 H s       :     0.866676  s :     0.866676
 29 H s       :     0.866857  s :     0.866857
 30 H s       :     0.866855  s :     0.866855
 31 H s       :     0.866711  s :     0.866711
 32 H s       :     0.867669  s :     0.867669
 33 H s       :     0.868741  s :     0.868741
 34 H s       :     0.868752  s :     0.868752
 35 H s       :     0.867697  s :     0.867697
 36 H s       :     0.866724  s :     0.866724
 37 H s       :     0.866836  s :     0.866836
 38 H s       :     0.866801  s :     0.866801
 39 H s       :     0.866720  s :     0.866720
 40 H s       :     0.868646  s :     0.868646
 41 H s       :     0.868651  s :     0.868651


                      *****************************
                      * MAYER POPULATION ANALYSIS *
                      *****************************

  NA   - Mulliken gross atomic population
  ZA   - Total nuclear charge
  QA   - Mulliken gross atomic charge
  VA   - Mayer's total valence
  BVA  - Mayer's bonded valence
  FA   - Mayer's free valence

  ATOM       NA         ZA         QA         VA         BVA        FA
  0 C      5.9058     6.0000     0.0942     3.9778     3.9778    -0.0000
  1 C      5.9117     6.0000     0.0883     3.9878     3.9878    -0.0000
  2 C      6.1726     6.0000    -0.1726     3.9221     3.9221    -0.0000
  3 C      6.1317     6.0000    -0.1317     3.9441     3.9441     0.0000
  4 C      6.1249     6.0000    -0.1249     3.9454     3.9454     0.0000
  5 C      6.1340     6.0000    -0.1340     3.9444     3.9444     0.0000
  6 C      6.1710     6.0000    -0.1710     3.9208     3.9208    -0.0000
  7 C      6.1797     6.0000    -0.1797     3.9112     3.9112    -0.0000
  8 C      6.1800     6.0000    -0.1800     3.9110     3.9110    -0.0000
  9 C      5.9055     6.0000     0.0945     3.9769     3.9769     0.0000
 10 C      5.9059     6.0000     0.0941     3.9767     3.9767     0.0000
 11 C      6.1801     6.0000    -0.1801     3.9110     3.9110     0.0000
 12 C      6.1791     6.0000    -0.1791     3.9108     3.9108     0.0000
 13 C      5.9062     6.0000     0.0938     3.9775     3.9775     0.0000
 14 C      5.9114     6.0000     0.0886     3.9880     3.9880    -0.0000
 15 C      6.1715     6.0000    -0.1715     3.9212     3.9212    -0.0000
 16 C      6.1340     6.0000    -0.1340     3.9447     3.9447     0.0000
 17 C      6.1245     6.0000    -0.1245     3.9455     3.9455    -0.0000
 18 C      6.1322     6.0000    -0.1322     3.9444     3.9444     0.0000
 19 C      6.1726     6.0000    -0.1726     3.9225     3.9225    -0.0000
 20 C      6.1806     6.0000    -0.1806     3.9121     3.9121     0.0000
 21 C      6.1786     6.0000    -0.1786     3.9097     3.9097     0.0000
 22 C      6.1791     6.0000    -0.1791     3.9101     3.9101     0.0000
 23 C      6.1805     6.0000    -0.1805     3.9121     3.9121     0.0000
 24 H      0.8690     1.0000     0.1310     0.9411     0.9411    -0.0000
 25 H      0.8720     1.0000     0.1280     0.9379     0.9379    -0.0000
 26 H      0.8711     1.0000     0.1289     0.9377     0.9377    -0.0000
 27 H      0.8694     1.0000     0.1306     0.9413     0.9413    -0.0000
 28 H      0.8678     1.0000     0.1322     0.9419     0.9419    -0.0000
 29 H      0.8681     1.0000     0.1319     0.9418     0.9418    -0.0000
 30 H      0.8680     1.0000     0.1320     0.9418     0.9418     0.0000
 31 H      0.8681     1.0000     0.1319     0.9419     0.9419    -0.0000
 32 H      0.8692     1.0000     0.1308     0.9412     0.9412     0.0000
 33 H      0.8713     1.0000     0.1287     0.9377     0.9377    -0.0000
 34 H      0.8716     1.0000     0.1284     0.9378     0.9378     0.0000
 35 H      0.8691     1.0000     0.1309     0.9411     0.9411     0.0000
 36 H      0.8677     1.0000     0.1323     0.9418     0.9418     0.0000
 37 H      0.8684     1.0000     0.1316     0.9419     0.9419     0.0000
 38 H      0.8682     1.0000     0.1318     0.9419     0.9419     0.0000
 39 H      0.8677     1.0000     0.1323     0.9418     0.9418     0.0000
 40 H      0.8699     1.0000     0.1301     0.9371     0.9371     0.0000
 41 H      0.8700     1.0000     0.1300     0.9371     0.9371     0.0000

  Mayer bond orders larger than 0.100000
B(  0-C ,  1-C ) :   1.0149 B(  0-C ,  7-C ) :   1.4014 B(  0-C , 23-C ) :   1.4021 
B(  1-C ,  2-C ) :   1.4100 B(  1-C ,  6-C ) :   1.4091 B(  2-C ,  3-C ) :   1.4417 
B(  2-C , 24-H ) :   0.9200 B(  3-C ,  4-C ) :   1.4479 B(  3-C , 25-H ) :   0.9298 
B(  4-C ,  5-C ) :   1.4484 B(  4-C , 40-H ) :   0.9303 B(  5-C ,  6-C ) :   1.4417 
B(  5-C , 26-H ) :   0.9297 B(  6-C , 27-H ) :   0.9201 B(  7-C ,  8-C ) :   1.4296 
B(  7-C , 28-H ) :   0.9197 B(  8-C ,  9-C ) :   1.4010 B(  8-C , 29-H ) :   0.9198 
B(  9-C , 10-C ) :   1.0172 B(  9-C , 22-C ) :   1.4002 B( 10-C , 11-C ) :   1.4011 
B( 10-C , 21-C ) :   1.4000 B( 11-C , 12-C ) :   1.4295 B( 11-C , 30-H ) :   0.9198 
B( 12-C , 13-C ) :   1.4012 B( 12-C , 31-H ) :   0.9197 B( 13-C , 14-C ) :   1.0149 
B( 13-C , 20-C ) :   1.4021 B( 14-C , 15-C ) :   1.4093 B( 14-C , 19-C ) :   1.4100 
B( 15-C , 16-C ) :   1.4417 B( 15-C , 32-H ) :   0.9200 B( 16-C , 17-C ) :   1.4485 
B( 16-C , 33-H ) :   0.9297 B( 17-C , 18-C ) :   1.4480 B( 17-C , 41-H ) :   0.9303 
B( 18-C , 19-C ) :   1.4420 B( 18-C , 34-H ) :   0.9297 B( 19-C , 35-H ) :   0.9200 
B( 20-C , 21-C ) :   1.4296 B( 20-C , 36-H ) :   0.9197 B( 21-C , 37-H ) :   0.9199 
B( 22-C , 23-C ) :   1.4297 B( 22-C , 38-H ) :   0.9198 B( 23-C , 39-H ) :   0.9196 


-------
TIMINGS
-------

Total SCF time: 0 days 0 hours 0 min 9 sec 

Total time                  ....       9.202 sec
Sum of individual times     ....       8.756 sec  ( 95.2%)

Fock matrix formation       ....       7.418 sec  ( 80.6%)
  XC integration            ....       0.376 sec  (  5.1% of F)
    Basis function eval.    ....       0.111 sec  ( 29.5% of XC)
    Density eval.           ....       0.055 sec  ( 14.7% of XC)
    XC-Functional eval.     ....       0.012 sec  (  3.1% of XC)
    XC-Potential eval.      ....       0.074 sec  ( 19.6% of XC)
Diagonalization             ....       0.033 sec  (  0.4%)
Density matrix formation    ....       0.018 sec  (  0.2%)
Population analysis         ....       0.042 sec  (  0.5%)
Initial guess               ....       0.040 sec  (  0.4%)
Orbital Transformation      ....       0.000 sec  (  0.0%)
Orbital Orthonormalization  ....       0.031 sec  (  0.3%)
DIIS solution               ....       0.011 sec  (  0.1%)
SOSCF solution              ....       0.175 sec  (  1.9%)
Grid generation             ....       1.020 sec  ( 11.1%)

-------------------------   --------------------
FINAL SINGLE POINT ENERGY      -924.804977424270
-------------------------   --------------------

                                *** OPTIMIZATION RUN DONE ***

                            ***************************************
                            *     ORCA property calculations      *
                            ***************************************

                                    ---------------------
                                    Active property flags
                                    ---------------------
   (+) Dipole Moment


------------------------------------------------------------------------------
                       ORCA ELECTRIC PROPERTIES CALCULATION
------------------------------------------------------------------------------

Dipole Moment Calculation                       ... on
Quadrupole Moment Calculation                   ... off
Polarizability Calculation                      ... off
GBWName                                         ... dummy4.gbw
Electron density file                           ... dummy4.scfp
The origin for moment calculation is the CENTER OF MASS  = (-0.806858, -0.913579 -0.041423)

-------------
DIPOLE MOMENT
-------------
                                X             Y             Z
Electronic contribution:      0.00089       0.00150       0.00525
Nuclear contribution   :     -0.00116      -0.00149      -0.00598
                        -----------------------------------------
Total Dipole Moment    :     -0.00027       0.00001      -0.00072
                        -----------------------------------------
Magnitude (a.u.)       :      0.00077
Magnitude (Debye)      :      0.00196



--------------------
Rotational spectrum 
--------------------
 
Rotational constants in cm-1:     0.047747     0.002205     0.002126 
Rotational constants in MHz :  1431.405924    66.118824    63.749500 

 Dipole components along the rotational axes: 
x,y,z [a.u.] :    -0.000217    -0.000722    -0.000166 
x,y,z [Debye]:    -0.000552    -0.001835    -0.000422 

 

Timings for individual modules:

Sum of individual times         ...      459.764 sec (=   7.663 min)
GTO integral calculation        ...       23.845 sec (=   0.397 min)   5.2 %
SCF iterations                  ...      316.555 sec (=   5.276 min)  68.9 %
SCF Gradient evaluation         ...      114.617 sec (=   1.910 min)  24.9 %
Geometry relaxation             ...        4.748 sec (=   0.079 min)   1.0 %
                             ****ORCA TERMINATED NORMALLY****
TOTAL RUN TIME: 0 days 0 hours 7 minutes 44 seconds 771 msec
