 Entering Gaussian System, Link 0=g09
 Initial command:
 /packages/gaussian/g09e01/l1.exe "/tmp/Gau-124802.inp" -scrdir="/tmp/"
 Entering Link 1 = /packages/gaussian/g09e01/l1.exe PID=    124803.
  
 Copyright (c) 1988,1990,1992,1993,1995,1998,2003,2009,2015,
            Gaussian, Inc.  All Rights Reserved.
  
 This is part of the Gaussian(R) 09 program.  It is based on
 the Gaussian(R) 03 system (copyright 2003, Gaussian, Inc.),
 the Gaussian(R) 98 system (copyright 1998, Gaussian, Inc.),
 the Gaussian(R) 94 system (copyright 1995, Gaussian, Inc.),
 the Gaussian 92(TM) system (copyright 1992, Gaussian, Inc.),
 the Gaussian 90(TM) system (copyright 1990, Gaussian, Inc.),
 the Gaussian 88(TM) system (copyright 1988, Gaussian, Inc.),
 the Gaussian 86(TM) system (copyright 1986, Carnegie Mellon
 University), and the Gaussian 82(TM) system (copyright 1983,
 Carnegie Mellon University). Gaussian is a federally registered
 trademark of Gaussian, Inc.
  
 This software contains proprietary and confidential information,
 including trade secrets, belonging to Gaussian, Inc.
  
 This software is provided under written license and may be
 used, copied, transmitted, or stored only in accord with that
 written license.
  
 The following legend is applicable only to US Government
 contracts under FAR:
  
                    RESTRICTED RIGHTS LEGEND
  
 Use, reproduction and disclosure by the US Government is
 subject to restrictions as set forth in subparagraphs (a)
 and (c) of the Commercial Computer Software - Restricted
 Rights clause in FAR 52.227-19.
  
 Gaussian, Inc.
 340 Quinnipiac St., Bldg. 40, Wallingford CT 06492
  
  
 ---------------------------------------------------------------
 Warning -- This program may not be used in any manner that
 competes with the business of Gaussian, Inc. or will provide
 assistance to any competitor of Gaussian, Inc.  The licensee
 of this program is prohibited from giving any competitor of
 Gaussian, Inc. access to this program.  By using this program,
 the user acknowledges that Gaussian, Inc. is engaged in the
 business of creating and licensing software in the field of
 computational chemistry and represents and warrants to the
 licensee that it is not a competitor of Gaussian, Inc. and that
 it will not use this program in any manner prohibited above.
 ---------------------------------------------------------------
  

 Cite this work as:
 Gaussian 09, Revision E.01,
 M. J. Frisch, G. W. Trucks, H. B. Schlegel, G. E. Scuseria, 
 M. A. Robb, J. R. Cheeseman, G. Scalmani, V. Barone, B. Mennucci, 
 G. A. Petersson, H. Nakatsuji, M. Caricato, X. Li, H. P. Hratchian, 
 A. F. Izmaylov, J. Bloino, G. Zheng, J. L. Sonnenberg, M. Hada, 
 M. Ehara, K. Toyota, R. Fukuda, J. Hasegawa, M. Ishida, T. Nakajima, 
 Y. Honda, O. Kitao, H. Nakai, T. Vreven, J. A. Montgomery, Jr., 
 J. E. Peralta, F. Ogliaro, M. Bearpark, J. J. Heyd, E. Brothers, 
 K. N. Kudin, V. N. Staroverov, T. Keith, R. Kobayashi, J. Normand, 
 K. Raghavachari, A. Rendell, J. C. Burant, S. S. Iyengar, J. Tomasi, 
 M. Cossi, N. Rega, J. M. Millam, M. Klene, J. E. Knox, J. B. Cross, 
 V. Bakken, C. Adamo, J. Jaramillo, R. Gomperts, R. E. Stratmann, 
 O. Yazyev, A. J. Austin, R. Cammi, C. Pomelli, J. W. Ochterski, 
 R. L. Martin, K. Morokuma, V. G. Zakrzewski, G. A. Voth, 
 P. Salvador, J. J. Dannenberg, S. Dapprich, A. D. Daniels, 
 O. Farkas, J. B. Foresman, J. V. Ortiz, J. Cioslowski, 
 and D. J. Fox, Gaussian, Inc., Wallingford CT, 2013.
 
 ******************************************
 Gaussian 09:  EM64L-G09RevE.01 30-Nov-2015
                18-Apr-2019 
 ******************************************
 ---------------------
 #n B3LYP/6-31G(d) opt
 ---------------------
 1/14=-1,18=20,19=15,26=3,38=1/1,3;
 2/9=110,12=2,17=6,18=5,40=1/2;
 3/5=1,6=6,7=1,11=2,16=1,25=1,30=1,71=1,74=-5/1,2,3;
 4//1;
 5/5=2,38=5/2;
 6/7=2,8=2,9=2,10=2,28=1/1;
 7//1,2,3,16;
 1/14=-1,18=20,19=15,26=3/3(2);
 2/9=110/2;
 99//99;
 2/9=110/2;
 3/5=1,6=6,7=1,11=2,16=1,25=1,30=1,71=1,74=-5/1,2,3;
 4/5=5,16=3,69=1/1;
 5/5=2,38=5/2;
 7//1,2,3,16;
 1/14=-1,18=20,19=15,26=3/3(-5);
 2/9=110/2;
 6/7=2,8=2,9=2,10=2,19=2,28=1/1;
 99/9=1/99;
 ---------------------
 geometry optimization
 ---------------------
 Symbolic Z-matrix:
 Charge =  0 Multiplicity = 1
 C                    -0.7511   -2.65194  -0.11041 
 C                     0.72954  -2.65593   0.09169 
 C                     1.20922  -2.12933   1.30658 
 C                     2.33506  -1.31414   1.33928 
 C                     3.0306   -0.9879    0.15846 
 C                     3.50845   0.41934   0.00349 
 C                     3.64556   1.29152   1.10509 
 C                     3.21361   2.61334   1.02842 
 C                     2.63452   3.12453  -0.15446 
 C                     2.89765   2.37424  -1.3191 
 C                     3.31639   1.05084  -1.24145 
 C                     2.77463  -1.82667  -0.94885 
 C                     1.64556  -2.64327  -0.98237 
 C                    -1.22915  -2.10747  -1.31805 
 C                    -2.35107  -1.28606  -1.33852 
 C                    -3.04327  -0.97309  -0.15242 
 C                    -3.50575   0.43737   0.01817 
 C                    -3.69085   1.31116  -1.07506 
 C                    -3.25226   2.6323   -1.01652 
 C                    -2.61217   3.13688   0.13759 
 C                    -2.81223   2.38273   1.31168 
 C                    -3.24412   1.06277   1.25296 
 C                    -2.79093  -1.82699   0.94382 
 C                    -1.66606  -2.64985   0.96481 
 H                     0.58498  -2.16605   2.19385 
 H                     2.52969  -0.76178   2.25279 
 H                     3.94234   0.903     2.07572 
 H                     3.18639   3.19321   1.94653 
 H                     2.58518   2.74212  -2.29062 
 H                     3.28864   0.45898  -2.151 
 H                     3.37205  -1.73424  -1.85222 
 H                     1.40274  -3.15535  -1.91022 
 H                    -0.60519  -2.13437  -2.20591 
 H                    -2.5432   -0.71696  -2.24247 
 H                    -4.0371    0.92364  -2.02986 
 H                    -3.27405   3.21909  -1.93072 
 H                    -2.43374   2.74211   2.26267 
 H                    -3.16646   0.46537   2.15592 
 H                    -3.38735  -1.74197   1.84875 
 H                    -1.42443  -3.17563   1.88532 
 H                     2.18584   4.11122  -0.19464 
 H                    -2.15736   4.12142   0.15725 
 

 GradGradGradGradGradGradGradGradGradGradGradGradGradGradGradGradGradGrad
 Berny optimization.
 Initialization pass.
                           ----------------------------
                           !    Initial Parameters    !
                           ! (Angstroms and Degrees)  !
 --------------------------                            --------------------------
 ! Name  Definition              Value          Derivative Info.                !
 --------------------------------------------------------------------------------
 ! R1    R(1,2)                  1.4944         estimate D2E/DX2                !
 ! R2    R(1,14)                 1.4083         estimate D2E/DX2                !
 ! R3    R(1,24)                 1.4118         estimate D2E/DX2                !
 ! R4    R(2,3)                  1.4083         estimate D2E/DX2                !
 ! R5    R(2,13)                 1.4117         estimate D2E/DX2                !
 ! R6    R(3,4)                  1.3904         estimate D2E/DX2                !
 ! R7    R(3,25)                 1.0855         estimate D2E/DX2                !
 ! R8    R(4,5)                  1.4087         estimate D2E/DX2                !
 ! R9    R(4,26)                 1.0851         estimate D2E/DX2                !
 ! R10   R(5,6)                  1.4942         estimate D2E/DX2                !
 ! R11   R(5,12)                 1.4125         estimate D2E/DX2                !
 ! R12   R(6,7)                  1.4117         estimate D2E/DX2                !
 ! R13   R(6,11)                 1.4091         estimate D2E/DX2                !
 ! R14   R(7,8)                  1.3927         estimate D2E/DX2                !
 ! R15   R(7,27)                 1.0868         estimate D2E/DX2                !
 ! R16   R(8,9)                  1.4128         estimate D2E/DX2                !
 ! R17   R(8,28)                 1.0862         estimate D2E/DX2                !
 ! R18   R(9,10)                 1.4102         estimate D2E/DX2                !
 ! R19   R(9,41)                 1.0847         estimate D2E/DX2                !
 ! R20   R(10,11)                1.3902         estimate D2E/DX2                !
 ! R21   R(10,29)                1.0848         estimate D2E/DX2                !
 ! R22   R(11,30)                1.0855         estimate D2E/DX2                !
 ! R23   R(12,13)                1.3938         estimate D2E/DX2                !
 ! R24   R(12,31)                1.087          estimate D2E/DX2                !
 ! R25   R(13,32)                1.0872         estimate D2E/DX2                !
 ! R26   R(14,15)                1.3906         estimate D2E/DX2                !
 ! R27   R(14,33)                1.0855         estimate D2E/DX2                !
 ! R28   R(15,16)                1.4085         estimate D2E/DX2                !
 ! R29   R(15,34)                1.0853         estimate D2E/DX2                !
 ! R30   R(16,17)                1.4941         estimate D2E/DX2                !
 ! R31   R(16,23)                1.4123         estimate D2E/DX2                !
 ! R32   R(17,18)                1.4117         estimate D2E/DX2                !
 ! R33   R(17,22)                1.4087         estimate D2E/DX2                !
 ! R34   R(18,19)                1.3933         estimate D2E/DX2                !
 ! R35   R(18,35)                1.0871         estimate D2E/DX2                !
 ! R36   R(19,20)                1.4129         estimate D2E/DX2                !
 ! R37   R(19,36)                1.0865         estimate D2E/DX2                !
 ! R38   R(20,21)                1.4097         estimate D2E/DX2                !
 ! R39   R(20,42)                1.0847         estimate D2E/DX2                !
 ! R40   R(21,22)                1.3901         estimate D2E/DX2                !
 ! R41   R(21,37)                1.0848         estimate D2E/DX2                !
 ! R42   R(22,38)                1.0855         estimate D2E/DX2                !
 ! R43   R(23,24)                1.3939         estimate D2E/DX2                !
 ! R44   R(23,39)                1.0871         estimate D2E/DX2                !
 ! R45   R(24,40)                1.0873         estimate D2E/DX2                !
 ! A1    A(2,1,14)             116.9571         estimate D2E/DX2                !
 ! A2    A(2,1,24)             122.624          estimate D2E/DX2                !
 ! A3    A(14,1,24)            115.6267         estimate D2E/DX2                !
 ! A4    A(1,2,3)              116.945          estimate D2E/DX2                !
 ! A5    A(1,2,13)             122.6837         estimate D2E/DX2                !
 ! A6    A(3,2,13)             115.5929         estimate D2E/DX2                !
 ! A7    A(2,3,4)              121.0189         estimate D2E/DX2                !
 ! A8    A(2,3,25)             119.7755         estimate D2E/DX2                !
 ! A9    A(4,3,25)             117.7934         estimate D2E/DX2                !
 ! A10   A(3,4,5)              121.0555         estimate D2E/DX2                !
 ! A11   A(3,4,26)             117.6119         estimate D2E/DX2                !
 ! A12   A(5,4,26)             119.9481         estimate D2E/DX2                !
 ! A13   A(4,5,6)              117.5763         estimate D2E/DX2                !
 ! A14   A(4,5,12)             115.4746         estimate D2E/DX2                !
 ! A15   A(6,5,12)             122.4048         estimate D2E/DX2                !
 ! A16   A(5,6,7)              122.1388         estimate D2E/DX2                !
 ! A17   A(5,6,11)             118.0416         estimate D2E/DX2                !
 ! A18   A(7,6,11)             115.1996         estimate D2E/DX2                !
 ! A19   A(6,7,8)              120.8819         estimate D2E/DX2                !
 ! A20   A(6,7,27)             120.1699         estimate D2E/DX2                !
 ! A21   A(8,7,27)             118.2391         estimate D2E/DX2                !
 ! A22   A(7,8,9)              121.1079         estimate D2E/DX2                !
 ! A23   A(7,8,28)             117.8978         estimate D2E/DX2                !
 ! A24   A(9,8,28)             120.2819         estimate D2E/DX2                !
 ! A25   A(8,9,10)             114.9921         estimate D2E/DX2                !
 ! A26   A(8,9,41)             121.9877         estimate D2E/DX2                !
 ! A27   A(10,9,41)            122.046          estimate D2E/DX2                !
 ! A28   A(9,10,11)            121.1015         estimate D2E/DX2                !
 ! A29   A(9,10,29)            120.361          estimate D2E/DX2                !
 ! A30   A(11,10,29)           117.3613         estimate D2E/DX2                !
 ! A31   A(6,11,10)            121.1322         estimate D2E/DX2                !
 ! A32   A(6,11,30)            119.9617         estimate D2E/DX2                !
 ! A33   A(10,11,30)           117.6789         estimate D2E/DX2                !
 ! A34   A(5,12,13)            120.9001         estimate D2E/DX2                !
 ! A35   A(5,12,31)            120.0938         estimate D2E/DX2                !
 ! A36   A(13,12,31)           118.3622         estimate D2E/DX2                !
 ! A37   A(2,13,12)            120.8361         estimate D2E/DX2                !
 ! A38   A(2,13,32)            120.0102         estimate D2E/DX2                !
 ! A39   A(12,13,32)           118.5141         estimate D2E/DX2                !
 ! A40   A(1,14,15)            120.9864         estimate D2E/DX2                !
 ! A41   A(1,14,33)            119.7802         estimate D2E/DX2                !
 ! A42   A(15,14,33)           117.7968         estimate D2E/DX2                !
 ! A43   A(14,15,16)           121.0198         estimate D2E/DX2                !
 ! A44   A(14,15,34)           117.6975         estimate D2E/DX2                !
 ! A45   A(16,15,34)           119.8585         estimate D2E/DX2                !
 ! A46   A(15,16,17)           117.2591         estimate D2E/DX2                !
 ! A47   A(15,16,23)           115.5619         estimate D2E/DX2                !
 ! A48   A(17,16,23)           122.5105         estimate D2E/DX2                !
 ! A49   A(16,17,18)           122.4437         estimate D2E/DX2                !
 ! A50   A(16,17,22)           117.4971         estimate D2E/DX2                !
 ! A51   A(18,17,22)           115.3648         estimate D2E/DX2                !
 ! A52   A(17,18,19)           120.8709         estimate D2E/DX2                !
 ! A53   A(17,18,35)           120.0859         estimate D2E/DX2                !
 ! A54   A(19,18,35)           118.3723         estimate D2E/DX2                !
 ! A55   A(18,19,20)           121.0352         estimate D2E/DX2                !
 ! A56   A(18,19,36)           118.0628         estimate D2E/DX2                !
 ! A57   A(20,19,36)           120.2314         estimate D2E/DX2                !
 ! A58   A(19,20,21)           115.1486         estimate D2E/DX2                !
 ! A59   A(19,20,42)           121.9319         estimate D2E/DX2                !
 ! A60   A(21,20,42)           122.005          estimate D2E/DX2                !
 ! A61   A(20,21,22)           121.1255         estimate D2E/DX2                !
 ! A62   A(20,21,37)           120.224          estimate D2E/DX2                !
 ! A63   A(22,21,37)           117.3877         estimate D2E/DX2                !
 ! A64   A(17,22,21)           121.0852         estimate D2E/DX2                !
 ! A65   A(17,22,38)           119.8765         estimate D2E/DX2                !
 ! A66   A(21,22,38)           117.7259         estimate D2E/DX2                !
 ! A67   A(16,23,24)           120.8518         estimate D2E/DX2                !
 ! A68   A(16,23,39)           120.0535         estimate D2E/DX2                !
 ! A69   A(24,23,39)           118.4492         estimate D2E/DX2                !
 ! A70   A(1,24,23)            120.8239         estimate D2E/DX2                !
 ! A71   A(1,24,40)            120.0026         estimate D2E/DX2                !
 ! A72   A(23,24,40)           118.5265         estimate D2E/DX2                !
 ! D1    D(14,1,2,3)           129.4954         estimate D2E/DX2                !
 ! D2    D(14,1,2,13)          -24.9094         estimate D2E/DX2                !
 ! D3    D(24,1,2,3)           -24.8839         estimate D2E/DX2                !
 ! D4    D(24,1,2,13)         -179.2886         estimate D2E/DX2                !
 ! D5    D(2,1,14,15)         -138.1884         estimate D2E/DX2                !
 ! D6    D(2,1,14,33)           27.8338         estimate D2E/DX2                !
 ! D7    D(24,1,14,15)          17.988          estimate D2E/DX2                !
 ! D8    D(24,1,14,33)        -175.9898         estimate D2E/DX2                !
 ! D9    D(2,1,24,23)          136.7691         estimate D2E/DX2                !
 ! D10   D(2,1,24,40)          -33.8764         estimate D2E/DX2                !
 ! D11   D(14,1,24,23)         -17.9232         estimate D2E/DX2                !
 ! D12   D(14,1,24,40)         171.4313         estimate D2E/DX2                !
 ! D13   D(1,2,3,4)           -138.2998         estimate D2E/DX2                !
 ! D14   D(1,2,3,25)            27.8397         estimate D2E/DX2                !
 ! D15   D(13,2,3,4)            17.9241         estimate D2E/DX2                !
 ! D16   D(13,2,3,25)         -175.9364         estimate D2E/DX2                !
 ! D17   D(1,2,13,12)          136.8792         estimate D2E/DX2                !
 ! D18   D(1,2,13,32)          -33.8181         estimate D2E/DX2                !
 ! D19   D(3,2,13,12)          -17.843          estimate D2E/DX2                !
 ! D20   D(3,2,13,32)          171.4597         estimate D2E/DX2                !
 ! D21   D(2,3,4,5)              0.0725         estimate D2E/DX2                !
 ! D22   D(2,3,4,26)           166.632          estimate D2E/DX2                !
 ! D23   D(25,3,4,5)          -166.333          estimate D2E/DX2                !
 ! D24   D(25,3,4,26)            0.2264         estimate D2E/DX2                !
 ! D25   D(3,4,5,6)            138.634          estimate D2E/DX2                !
 ! D26   D(3,4,5,12)           -18.0755         estimate D2E/DX2                !
 ! D27   D(26,4,5,6)           -27.6151         estimate D2E/DX2                !
 ! D28   D(26,4,5,12)          175.6754         estimate D2E/DX2                !
 ! D29   D(4,5,6,7)             19.0852         estimate D2E/DX2                !
 ! D30   D(4,5,6,11)          -135.6481         estimate D2E/DX2                !
 ! D31   D(12,5,6,7)           174.0746         estimate D2E/DX2                !
 ! D32   D(12,5,6,11)           19.3413         estimate D2E/DX2                !
 ! D33   D(4,5,12,13)           18.0909         estimate D2E/DX2                !
 ! D34   D(4,5,12,31)         -171.2571         estimate D2E/DX2                !
 ! D35   D(6,5,12,13)         -137.3826         estimate D2E/DX2                !
 ! D36   D(6,5,12,31)           33.2695         estimate D2E/DX2                !
 ! D37   D(5,6,7,8)           -136.5216         estimate D2E/DX2                !
 ! D38   D(5,6,7,27)            33.66           estimate D2E/DX2                !
 ! D39   D(11,6,7,8)            18.8741         estimate D2E/DX2                !
 ! D40   D(11,6,7,27)         -170.9442         estimate D2E/DX2                !
 ! D41   D(5,6,11,10)          138.1696         estimate D2E/DX2                !
 ! D42   D(5,6,11,30)          -28.8813         estimate D2E/DX2                !
 ! D43   D(7,6,11,10)          -18.2872         estimate D2E/DX2                !
 ! D44   D(7,6,11,30)          174.6618         estimate D2E/DX2                !
 ! D45   D(6,7,8,9)             -0.447          estimate D2E/DX2                !
 ! D46   D(6,7,8,28)           169.9068         estimate D2E/DX2                !
 ! D47   D(27,7,8,9)          -170.8136         estimate D2E/DX2                !
 ! D48   D(27,7,8,28)           -0.4599         estimate D2E/DX2                !
 ! D49   D(7,8,9,10)           -18.5611         estimate D2E/DX2                !
 ! D50   D(7,8,9,41)           172.5207         estimate D2E/DX2                !
 ! D51   D(28,8,9,10)          171.3133         estimate D2E/DX2                !
 ! D52   D(28,8,9,41)            2.3951         estimate D2E/DX2                !
 ! D53   D(8,9,10,11)           19.1986         estimate D2E/DX2                !
 ! D54   D(8,9,10,29)         -173.5222         estimate D2E/DX2                !
 ! D55   D(41,9,10,11)        -171.8904         estimate D2E/DX2                !
 ! D56   D(41,9,10,29)          -4.6111         estimate D2E/DX2                !
 ! D57   D(9,10,11,6)           -0.8139         estimate D2E/DX2                !
 ! D58   D(9,10,11,30)         166.5226         estimate D2E/DX2                !
 ! D59   D(29,10,11,6)        -168.4608         estimate D2E/DX2                !
 ! D60   D(29,10,11,30)         -1.1244         estimate D2E/DX2                !
 ! D61   D(5,12,13,2)           -0.1641         estimate D2E/DX2                !
 ! D62   D(5,12,13,32)         170.6695         estimate D2E/DX2                !
 ! D63   D(31,12,13,2)        -170.9743         estimate D2E/DX2                !
 ! D64   D(31,12,13,32)         -0.1407         estimate D2E/DX2                !
 ! D65   D(1,14,15,16)           0.0236         estimate D2E/DX2                !
 ! D66   D(1,14,15,34)         166.3835         estimate D2E/DX2                !
 ! D67   D(33,14,15,16)       -166.2672         estimate D2E/DX2                !
 ! D68   D(33,14,15,34)          0.0927         estimate D2E/DX2                !
 ! D69   D(14,15,16,17)        138.3919         estimate D2E/DX2                !
 ! D70   D(14,15,16,23)        -18.0472         estimate D2E/DX2                !
 ! D71   D(34,15,16,17)        -27.6768         estimate D2E/DX2                !
 ! D72   D(34,15,16,23)        175.8841         estimate D2E/DX2                !
 ! D73   D(15,16,17,18)         21.94           estimate D2E/DX2                !
 ! D74   D(15,16,17,22)       -132.6326         estimate D2E/DX2                !
 ! D75   D(23,16,17,18)        176.6242         estimate D2E/DX2                !
 ! D76   D(23,16,17,22)         22.0516         estimate D2E/DX2                !
 ! D77   D(15,16,23,24)         18.0477         estimate D2E/DX2                !
 ! D78   D(15,16,23,39)       -171.3037         estimate D2E/DX2                !
 ! D79   D(17,16,23,24)       -137.0317         estimate D2E/DX2                !
 ! D80   D(17,16,23,39)         33.6169         estimate D2E/DX2                !
 ! D81   D(16,17,18,19)       -136.7075         estimate D2E/DX2                !
 ! D82   D(16,17,18,35)         33.7526         estimate D2E/DX2                !
 ! D83   D(22,17,18,19)         18.3634         estimate D2E/DX2                !
 ! D84   D(22,17,18,35)       -171.1765         estimate D2E/DX2                !
 ! D85   D(16,17,22,21)        138.2415         estimate D2E/DX2                !
 ! D86   D(16,17,22,38)        -28.3803         estimate D2E/DX2                !
 ! D87   D(18,17,22,21)        -18.1172         estimate D2E/DX2                !
 ! D88   D(18,17,22,38)        175.2609         estimate D2E/DX2                !
 ! D89   D(17,18,19,20)         -0.1055         estimate D2E/DX2                !
 ! D90   D(17,18,19,36)        170.53           estimate D2E/DX2                !
 ! D91   D(35,18,19,20)       -170.7254         estimate D2E/DX2                !
 ! D92   D(35,18,19,36)         -0.0898         estimate D2E/DX2                !
 ! D93   D(18,19,20,21)        -18.3793         estimate D2E/DX2                !
 ! D94   D(18,19,20,42)        172.3648         estimate D2E/DX2                !
 ! D95   D(36,19,20,21)        171.1868         estimate D2E/DX2                !
 ! D96   D(36,19,20,42)          1.9309         estimate D2E/DX2                !
 ! D97   D(19,20,21,22)         18.6867         estimate D2E/DX2                !
 ! D98   D(19,20,21,37)       -174.4836         estimate D2E/DX2                !
 ! D99   D(42,20,21,22)       -172.0661         estimate D2E/DX2                !
 ! D100  D(42,20,21,37)         -5.2364         estimate D2E/DX2                !
 ! D101  D(20,21,22,17)         -0.4663         estimate D2E/DX2                !
 ! D102  D(20,21,22,38)        166.4337         estimate D2E/DX2                !
 ! D103  D(37,21,22,17)       -167.6559         estimate D2E/DX2                !
 ! D104  D(37,21,22,38)         -0.7558         estimate D2E/DX2                !
 ! D105  D(16,23,24,1)          -0.0879         estimate D2E/DX2                !
 ! D106  D(16,23,24,40)        170.6928         estimate D2E/DX2                !
 ! D107  D(39,23,24,1)        -170.8834         estimate D2E/DX2                !
 ! D108  D(39,23,24,40)         -0.1026         estimate D2E/DX2                !
 --------------------------------------------------------------------------------
 Trust Radius=3.00D-01 FncErr=1.00D-07 GrdErr=1.00D-06
 Number of steps in this run=    235 maximum allowed number of steps=    252.
 GradGradGradGradGradGradGradGradGradGradGradGradGradGradGradGradGradGrad

                          Input orientation:                          
 ---------------------------------------------------------------------
 Center     Atomic      Atomic             Coordinates (Angstroms)
 Number     Number       Type             X           Y           Z
 ---------------------------------------------------------------------
      1          6           0       -0.751097   -2.651936   -0.110406
      2          6           0        0.729543   -2.655933    0.091687
      3          6           0        1.209222   -2.129331    1.306582
      4          6           0        2.335061   -1.314138    1.339275
      5          6           0        3.030602   -0.987903    0.158461
      6          6           0        3.508450    0.419338    0.003492
      7          6           0        3.645556    1.291517    1.105094
      8          6           0        3.213607    2.613339    1.028417
      9          6           0        2.634516    3.124535   -0.154462
     10          6           0        2.897654    2.374238   -1.319103
     11          6           0        3.316385    1.050836   -1.241450
     12          6           0        2.774634   -1.826671   -0.948849
     13          6           0        1.645556   -2.643269   -0.982372
     14          6           0       -1.229145   -2.107466   -1.318054
     15          6           0       -2.351069   -1.286062   -1.338521
     16          6           0       -3.043274   -0.973093   -0.152419
     17          6           0       -3.505752    0.437371    0.018168
     18          6           0       -3.690845    1.311158   -1.075063
     19          6           0       -3.252257    2.632300   -1.016525
     20          6           0       -2.612173    3.136884    0.137592
     21          6           0       -2.812233    2.382726    1.311675
     22          6           0       -3.244118    1.062771    1.252963
     23          6           0       -2.790930   -1.826994    0.943817
     24          6           0       -1.666055   -2.649852    0.964811
     25          1           0        0.584981   -2.166053    2.193845
     26          1           0        2.529687   -0.761782    2.252788
     27          1           0        3.942340    0.903000    2.075724
     28          1           0        3.186393    3.193215    1.946529
     29          1           0        2.585175    2.742122   -2.290615
     30          1           0        3.288639    0.458982   -2.151002
     31          1           0        3.372050   -1.734239   -1.852220
     32          1           0        1.402739   -3.155348   -1.910217
     33          1           0       -0.605189   -2.134367   -2.205914
     34          1           0       -2.543195   -0.716960   -2.242471
     35          1           0       -4.037103    0.923642   -2.029858
     36          1           0       -3.274046    3.219091   -1.930715
     37          1           0       -2.433741    2.742105    2.262665
     38          1           0       -3.166459    0.465370    2.155919
     39          1           0       -3.387353   -1.741971    1.848746
     40          1           0       -1.424434   -3.175633    1.885323
     41          1           0        2.185837    4.111222   -0.194641
     42          1           0       -2.157359    4.121421    0.157251
 ---------------------------------------------------------------------
                    Distance matrix (angstroms):
                    1          2          3          4          5
     1  C    0.000000
     2  C    1.494374   0.000000
     3  C    2.474636   1.408322   0.000000
     4  C    3.662738   2.436099   1.390368   0.000000
     5  C    4.140355   2.842825   2.436897   1.408733   0.000000
     6  C    5.252565   4.145768   3.671540   2.483163   1.494216
     7  C    6.029827   5.011236   4.204583   2.926034   2.543627
     8  C    6.688716   5.900277   5.156341   4.036527   3.709347
     9  C    6.695665   6.091250   5.636419   4.692839   4.143302
    10  C    6.327461   5.656293   5.479704   4.581223   3.674896
    11  C    5.615531   4.712658   4.587599   3.635415   2.489554
    12  C    3.716830   2.439834   2.762080   2.385671   1.412511
    13  C    2.550362   1.411681   2.386175   2.762617   2.441329
    14  C    1.408329   2.474802   3.582573   4.516008   4.645316
    15  C    2.435937   3.662269   4.514792   5.397332   5.593946
    16  C    2.841541   4.138319   4.642122   5.591775   6.081845
    17  C    4.141072   5.245156   5.520774   6.239247   6.691413
    18  C    5.027802   6.053011   6.443590   7.002339   7.210070
    19  C    5.916080   6.711801   6.926381   7.234797   7.345800
    20  C    6.085684   6.687743   6.610796   6.762452   6.989650
    21  C    5.623026   6.278585   6.044070   6.337365   6.843228
    22  C    4.676855   5.564827   5.479473   6.065013   6.691436
    23  C    2.439843   3.715777   4.027930   5.166739   5.933894
    24  C    1.411823   2.549759   2.941933   4.234771   5.046867
    25  H    2.707538   2.163319   1.085477   2.125754   3.392917
    26  H    4.463285   3.390971   2.123470   1.085119   2.165237
    27  H    6.280532   5.188880   4.154100   2.835737   2.843005
    28  H    7.341703   6.609772   5.713863   4.627068   4.550078
    29  H    6.706704   6.185283   6.210002   5.449028   4.484358
    30  H    5.491931   4.613168   4.793561   4.029305   2.737458
    31  H    4.569073   3.407512   3.848630   3.381933   2.171737
    32  H    2.851623   2.170306   3.382005   3.849477   3.409866
    33  H    2.163405   2.707861   3.953447   4.678270   4.485936
    34  H    3.391379   4.463040   5.354550   6.081357   6.074957
    35  H    5.221771   6.327339   6.926500   7.547396   7.641675
    36  H    6.644378   7.391532   7.693205   7.918654   7.862063
    37  H    6.128494   6.622562   6.157610   6.328288   6.942599
    38  H    4.548384   5.402075   5.157561   5.839544   6.671237
    39  H    3.408249   4.568524   4.644620   5.760957   6.679508
    40  H    2.170386   2.850760   2.892375   4.230501   5.255051
    41  H    7.373804   6.927998   6.492453   5.640009   5.180674
    42  H    6.922975   7.366887   7.192130   7.150127   7.281492
                    6          7          8          9         10
     6  C    0.000000
     7  C    1.411744   0.000000
     8  C    2.439476   1.392721   0.000000
     9  C    2.847244   2.443080   1.412753   0.000000
    10  C    2.438024   2.758328   2.380724   1.410169   0.000000
    11  C    1.409099   2.381711   2.757585   2.438589   1.390237
    12  C    2.547547   3.834095   4.880161   5.016485   4.218988
    13  C    3.717777   4.882628   5.842430   5.910249   5.182327
    14  C    5.529560   6.417744   6.894198   6.607243   6.092302
    15  C    6.248468   6.969554   7.195370   6.761022   6.399005
    16  C    6.699870   7.172883   7.307902   7.001990   6.918121
    17  C    7.014241   7.283693   7.134790   6.704740   6.822269
    18  C    7.334062   7.653512   7.334287   6.644248   6.678174
    19  C    7.186431   7.340217   6.781559   5.969886   6.162755
    20  C    6.698139   6.595499   5.916704   5.254826   5.749938
    21  C    6.746649   6.552591   6.036900   5.689193   6.286802
    22  C    6.897272   6.895056   6.645065   6.386709   6.786518
    23  C    6.753696   7.153983   7.468479   7.426932   7.425035
    24  C    6.092583   6.615684   7.177487   7.286373   7.161367
    25  H    4.475328   4.744185   5.577677   6.140477   6.188982
    26  H    2.722564   2.603536   3.654897   4.572669   4.767434
    27  H    2.171712   1.086807   2.133814   3.408717   3.844575
    28  H    3.401986   2.129624   1.086244   2.173350   3.379119
    29  H    3.392741   3.841810   3.380456   2.170674   1.084812
    30  H    2.166041   3.379743   3.841300   3.393998   2.124413
    31  H    2.846079   4.239777   5.217721   5.199425   4.169994
    32  H    4.568882   5.822108   6.722541   6.636029   5.758516
    33  H    5.322115   6.385005   6.898175   6.508471   5.777877
    34  H    6.554230   7.317159   7.411502   6.776840   6.325421
    35  H    7.830977   8.305812   8.048659   7.271282   7.120411
    36  H    7.588282   7.798241   7.156329   6.170504   6.259211
    37  H    6.768216   6.356259   5.782083   5.628142   6.433363
    38  H    7.013521   6.941923   6.825707   6.786776   7.245207
    39  H    7.458439   7.695250   7.950744   7.997414   8.153512
    40  H    6.387366   6.802131   7.467122   7.767105   7.729803
    41  H    3.926649   3.430864   2.189940   1.084656   2.188198
    42  H    6.769819   6.525380   5.646283   4.904387   5.548462
                   11         12         13         14         15
    11  C    0.000000
    12  C    2.942644   0.000000
    13  C    4.062660   1.393834   0.000000
    14  C    5.535574   4.030559   2.943412   0.000000
    15  C    6.131113   5.168843   4.235784   1.390625   0.000000
    16  C    6.762214   5.933881   5.046131   2.436508   1.408522
    17  C    6.964519   6.745684   6.085014   3.666691   2.478733
    18  C    7.014038   7.187790   6.642534   4.219716   2.934274
    19  C    6.760080   7.497361   7.198706   5.162294   4.033532
    20  C    6.434373   7.405061   7.265862   5.615592   4.670068
    21  C    6.771435   7.351331   7.098955   5.439069   4.549309
    22  C    7.018721   7.030094   6.529959   4.551994   3.609757
    23  C    7.096238   5.878579   4.904989   2.762951   2.386452
    24  C    6.586910   4.905042   3.841658   2.386744   2.763061
    25  H    5.441525   3.845294   3.382441   3.953216   4.676792
    26  H    4.014247   3.382967   3.845509   5.356360   6.082282
    27  H    3.378952   4.238241   5.215668   6.879309   7.487059
    28  H    3.843162   5.809648   6.709485   7.632280   7.843402
    29  H    2.120345   4.765512   5.621105   6.246072   6.441991
    30  H    1.085516   2.633170   3.699916   5.262208   5.959162
    31  H    2.851803   1.086981   2.136294   4.647110   5.763579
    32  H    4.669183   2.138155   1.087236   2.894050   4.232274
    33  H    5.143389   3.619129   2.611875   1.085514   2.126050
    34  H    6.201760   5.584283   4.779556   2.124801   1.085318
    35  H    7.396726   7.425131   6.790633   4.192721   2.864166
    36  H    6.972101   7.937903   7.711621   5.738396   4.636700
    37  H    6.942850   7.636407   7.494877   6.147434   5.403842
    38  H    7.342490   7.084463   6.532074   4.737210   3.992929
    39  H    7.892350   6.767850   5.844462   3.849684   3.382367
    40  H    7.079203   5.242557   4.234610   3.382417   3.849974
    41  H    3.426355   6.014490   6.821699   7.183052   7.143014
    42  H    6.430142   7.805627   7.843592   6.468164   5.613887
                   16         17         18         19         20
    16  C    0.000000
    17  C    1.494120   0.000000
    18  C    2.547238   1.411707   0.000000
    19  C    3.713383   2.439787   1.393270   0.000000
    20  C    4.142688   2.846070   2.442814   1.412904   0.000000
    21  C    3.668579   2.436911   2.759843   2.382525   1.409698
    22  C    2.481971   1.408650   2.383478   2.759359   2.438309
    23  C    1.412288   2.548558   3.838453   4.892961   5.032101
    24  C    2.440585   3.716391   4.893921   5.860278   5.921634
    25  H    4.482448   5.314648   6.407764   6.932176   6.524654
    26  H    6.073514   6.546604   7.353006   7.459161   6.790609
    27  H    7.568563   7.741087   8.267984   8.019645   7.190844
    28  H    7.782831   7.489864   7.743937   7.109889   6.074438
    29  H    7.074895   6.909540   6.550851   5.975866   5.750170
    30  H    6.792518   7.132287   7.113160   6.985247   6.872292
    31  H    6.680198   7.451067   7.730647   7.977875   7.968571
    32  H    5.255390   6.381190   6.825815   7.480945   7.739846
    33  H    3.392589   4.469188   4.761485   5.580567   6.107871
    34  H    2.164255   2.714679   2.606378   3.636379   4.530074
    35  H    2.847820   2.170991   1.087059   2.135963   3.409795
    36  H    4.559605   3.404379   2.132152   1.086527   2.173184
    37  H    4.472903   3.390984   3.842961   3.381584   2.168784
    38  H    2.722641   2.164690   3.380767   3.842831   3.393798
    39  H    2.171227   2.848608   4.238203   5.230896   5.228019
    40  H    3.409431   4.568583   5.833678   6.744905   6.656813
    41  H    7.293534   6.777658   6.568934   5.695223   4.907200
    42  H    5.180233   3.925523   3.430416   2.189528   1.084691
                   21         22         23         24         25
    21  C    0.000000
    22  C    1.390055   0.000000
    23  C    4.225815   2.941376   0.000000
    24  C    5.173092   4.044364   1.393872   0.000000
    25  H    5.745492   5.096328   3.615841   2.609933   0.000000
    26  H    6.269747   6.137220   5.581850   4.777860   2.399444
    27  H    6.956840   7.235167   7.353299   6.731343   4.550264
    28  H    6.086333   6.809647   7.869963   7.658424   5.962404
    29  H    6.499052   7.025512   7.761500   7.598956   6.942718
    30  H    7.274033   7.391106   7.194772   6.627377   5.751371
    31  H    8.074961   7.825542   6.768216   5.844357   4.932024
    32  H    7.669214   7.027910   5.243748   4.235423   4.300088
    33  H    6.135846   5.399025   3.846134   3.382995   4.558003
    34  H    4.723599   3.984570   3.383191   3.846050   5.618385
    35  H    3.846437   3.380103   4.238123   5.230657   6.982087
    36  H    3.380218   3.845311   5.827462   6.739006   7.804093
    37  H    1.084800   2.120465   4.769026   5.598836   5.762589
    38  H    2.124730   1.085472   2.620142   3.657124   4.582480
    39  H    4.199087   2.870897   1.087127   2.137395   4.009785
    40  H    5.757640   4.655663   2.138357   1.087276   2.269843
    41  H    5.498854   6.393201   7.831137   7.867244   6.904476
    42  H    2.187376   3.425926   6.033551   6.836934   7.155451
                   26         27         28         29         30
    26  H    0.000000
    27  H    2.190534   0.000000
    28  H    4.020828   2.415208   0.000000
    29  H    5.737851   4.928406   4.303294   0.000000
    30  H    4.632455   4.299964   4.927093   2.393132   0.000000
    31  H    4.301899   4.765397   6.224529   4.566089   2.215050
    32  H    4.932523   6.229566   7.639382   6.026857   4.083868
    33  H    5.620628   6.945361   7.746096   5.828014   4.678715
    34  H    6.778163   7.958219   8.103417   6.186093   5.949915
    35  H    8.019005   8.973725   8.552281   6.872367   7.341463
    36  H    8.187329   8.572751   7.534651   5.889609   7.122890
    37  H    6.075602   6.638649   5.647065   6.776568   7.578835
    38  H    5.827638   7.122708   6.916915   7.618173   7.760019
    39  H    6.011271   7.795626   8.220691   8.538881   8.087710
    40  H    4.647234   6.743424   7.862932   8.278602   7.191342
    41  H    5.463910   4.304945   2.535440   2.535155   4.287468
    42  H    7.085573   7.158568   5.711284   5.512363   6.957039
                   31         32         33         34         35
    31  H    0.000000
    32  H    2.429218   0.000000
    33  H    4.012933   2.271919   0.000000
    34  H    6.014755   4.650433   2.401301   0.000000
    35  H    7.873464   6.800320   4.600049   2.229022   0.000000
    36  H    8.289284   7.906087   5.988159   4.015449   2.420986
    37  H    8.406970   8.179943   6.862345   5.680965   4.929841
    38  H    7.978443   7.107787   5.687207   4.596977   4.299856
    39  H    7.706279   6.250793   4.933019   4.301315   4.750920
    40  H    6.249248   4.732805   4.300421   4.933091   6.241693
    41  H    6.190645   7.507295   7.130388   7.061777   7.228670
    42  H    8.300668   8.360627   6.865032   5.414561   4.306121
                   36         37         38         39         40
    36  H    0.000000
    37  H    4.303262   0.000000
    38  H    4.929009   2.394116   0.000000
    39  H    6.237732   4.603004   2.239532   0.000000
    40  H    7.673051   6.015040   4.045340   2.431003   0.000000
    41  H    5.798291   5.408635   6.889444   8.336411   8.393960
    42  H    2.533928   2.532127   4.287151   6.225223   7.534614
                   41         42
    41  H    0.000000
    42  H    4.357440   0.000000
 Stoichiometry    C24H18
 Framework group  C1[X(C24H18)]
 Deg. of freedom   120
 Full point group                 C1      NOp   1
 Largest Abelian subgroup         C1      NOp   1
 Largest concise Abelian subgroup C1      NOp   1
                         Standard orientation:                         
 ---------------------------------------------------------------------
 Center     Atomic      Atomic             Coordinates (Angstroms)
 Number     Number       Type             X           Y           Z
 ---------------------------------------------------------------------
      1          6           0       -0.751097   -2.651936   -0.110406
      2          6           0        0.729543   -2.655933    0.091687
      3          6           0        1.209222   -2.129331    1.306582
      4          6           0        2.335061   -1.314138    1.339275
      5          6           0        3.030602   -0.987903    0.158461
      6          6           0        3.508450    0.419338    0.003492
      7          6           0        3.645556    1.291517    1.105094
      8          6           0        3.213607    2.613339    1.028417
      9          6           0        2.634516    3.124535   -0.154462
     10          6           0        2.897654    2.374238   -1.319103
     11          6           0        3.316385    1.050836   -1.241450
     12          6           0        2.774634   -1.826671   -0.948849
     13          6           0        1.645556   -2.643269   -0.982372
     14          6           0       -1.229145   -2.107466   -1.318054
     15          6           0       -2.351069   -1.286062   -1.338521
     16          6           0       -3.043274   -0.973093   -0.152419
     17          6           0       -3.505752    0.437371    0.018168
     18          6           0       -3.690845    1.311158   -1.075063
     19          6           0       -3.252257    2.632300   -1.016525
     20          6           0       -2.612173    3.136884    0.137592
     21          6           0       -2.812233    2.382726    1.311675
     22          6           0       -3.244118    1.062771    1.252963
     23          6           0       -2.790930   -1.826994    0.943817
     24          6           0       -1.666055   -2.649852    0.964811
     25          1           0        0.584981   -2.166053    2.193845
     26          1           0        2.529687   -0.761782    2.252788
     27          1           0        3.942340    0.903000    2.075724
     28          1           0        3.186393    3.193215    1.946529
     29          1           0        2.585175    2.742122   -2.290615
     30          1           0        3.288639    0.458982   -2.151002
     31          1           0        3.372050   -1.734239   -1.852220
     32          1           0        1.402739   -3.155348   -1.910217
     33          1           0       -0.605189   -2.134367   -2.205914
     34          1           0       -2.543195   -0.716960   -2.242471
     35          1           0       -4.037103    0.923642   -2.029858
     36          1           0       -3.274046    3.219091   -1.930715
     37          1           0       -2.433741    2.742105    2.262665
     38          1           0       -3.166459    0.465370    2.155919
     39          1           0       -3.387353   -1.741971    1.848746
     40          1           0       -1.424434   -3.175633    1.885323
     41          1           0        2.185837    4.111222   -0.194641
     42          1           0       -2.157359    4.121421    0.157251
 ---------------------------------------------------------------------
 Rotational constants (GHZ):      0.3085938      0.1935409      0.1410093
 Standard basis: 6-31G(d) (6D, 7F)
 There are   396 symmetry adapted cartesian basis functions of A   symmetry.
 There are   396 symmetry adapted basis functions of A   symmetry.
   396 basis functions,   744 primitive gaussians,   396 cartesian basis functions
    81 alpha electrons       81 beta electrons
       nuclear repulsion energy      1797.4603300271 Hartrees.
 NAtoms=   42 NActive=   42 NUniq=   42 SFac= 1.00D+00 NAtFMM=   60 NAOKFM=F Big=F
 Integral buffers will be    131072 words long.
 Raffenetti 2 integral format.
 Two-electron integral symmetry is turned on.
 One-electron integrals computed using PRISM.
 NBasis=   396 RedAO= T EigKep=  4.69D-04  NBF=   396
 NBsUse=   396 1.00D-06 EigRej= -1.00D+00 NBFU=   396
 ExpMin= 1.61D-01 ExpMax= 3.05D+03 ExpMxC= 4.57D+02 IAcc=1 IRadAn=         1 AccDes= 0.00D+00
 Harris functional with IExCor=  402 and IRadAn=       1 diagonalized for initial guess.
 HarFok:  IExCor=  402 AccDes= 0.00D+00 IRadAn=         1 IDoV= 1 UseB2=F ITyADJ=14
 ICtDFT=  3500011 ScaDFX=  1.000000  1.000000  1.000000  1.000000
 FoFCou: FMM=F IPFlag=           0 FMFlag=      100000 FMFlg1=           0
         NFxFlg=           0 DoJE=T BraDBF=F KetDBF=T FulRan=T
         wScrn=  0.000000 ICntrl=     500 IOpCl=  0 I1Cent=   200000004 NGrid=           0
         NMat0=    1 NMatS0=      1 NMatT0=    0 NMatD0=    1 NMtDS0=    0 NMtDT0=    0
 Petite list used in FoFCou.
 Requested convergence on RMS density matrix=1.00D-08 within 128 cycles.
 Requested convergence on MAX density matrix=1.00D-06.
 Requested convergence on             energy=1.00D-06.
 No special actions if energy rises.
 Integral accuracy reduced to 1.0D-05 until final iterations.
 Initial convergence to 1.0D-05 achieved.  Increase integral accuracy.
 SCF Done:  E(RB3LYP) =  -925.293823414     A.U. after   14 cycles
            NFock= 14  Conv=0.97D-08     -V/T= 2.0100

 **********************************************************************

            Population analysis using the SCF density.

 **********************************************************************

 Orbital symmetries:
       Occupied  (A) (A) (A) (A) (A) (A) (A) (A) (A) (A) (A) (A)
                 (A) (A) (A) (A) (A) (A) (A) (A) (A) (A) (A) (A)
                 (A) (A) (A) (A) (A) (A) (A) (A) (A) (A) (A) (A)
                 (A) (A) (A) (A) (A) (A) (A) (A) (A) (A) (A) (A)
                 (A) (A) (A) (A) (A) (A) (A) (A) (A) (A) (A) (A)
                 (A) (A) (A) (A) (A) (A) (A) (A) (A) (A) (A) (A)
                 (A) (A) (A) (A) (A) (A) (A) (A) (A)
       Virtual   (A) (A) (A) (A) (A) (A) (A) (A) (A) (A) (A) (A)
                 (A) (A) (A) (A) (A) (A) (A) (A) (A) (A) (A) (A)
                 (A) (A) (A) (A) (A) (A) (A) (A) (A) (A) (A) (A)
                 (A) (A) (A) (A) (A) (A) (A) (A) (A) (A) (A) (A)
                 (A) (A) (A) (A) (A) (A) (A) (A) (A) (A) (A) (A)
                 (A) (A) (A) (A) (A) (A) (A) (A) (A) (A) (A) (A)
                 (A) (A) (A) (A) (A) (A) (A) (A) (A) (A) (A) (A)
                 (A) (A) (A) (A) (A) (A) (A) (A) (A) (A) (A) (A)
                 (A) (A) (A) (A) (A) (A) (A) (A) (A) (A) (A) (A)
                 (A) (A) (A) (A) (A) (A) (A) (A) (A) (A) (A) (A)
                 (A) (A) (A) (A) (A) (A) (A) (A) (A) (A) (A) (A)
                 (A) (A) (A) (A) (A) (A) (A) (A) (A) (A) (A) (A)
                 (A) (A) (A) (A) (A) (A) (A) (A) (A) (A) (A) (A)
                 (A) (A) (A) (A) (A) (A) (A) (A) (A) (A) (A) (A)
                 (A) (A) (A) (A) (A) (A) (A) (A) (A) (A) (A) (A)
                 (A) (A) (A) (A) (A) (A) (A) (A) (A) (A) (A) (A)
                 (A) (A) (A) (A) (A) (A) (A) (A) (A) (A) (A) (A)
                 (A) (A) (A) (A) (A) (A) (A) (A) (A) (A) (A) (A)
                 (A) (A) (A) (A) (A) (A) (A) (A) (A) (A) (A) (A)
                 (A) (A) (A) (A) (A) (A) (A) (A) (A) (A) (A) (A)
                 (A) (A) (A) (A) (A) (A) (A) (A) (A) (A) (A) (A)
                 (A) (A) (A) (A) (A) (A) (A) (A) (A) (A) (A) (A)
                 (A) (A) (A) (A) (A) (A) (A) (A) (A) (A) (A) (A)
                 (A) (A) (A) (A) (A) (A) (A) (A) (A) (A) (A) (A)
                 (A) (A) (A) (A) (A) (A) (A) (A) (A) (A) (A) (A)
                 (A) (A) (A) (A) (A) (A) (A) (A) (A) (A) (A) (A)
                 (A) (A) (A)
 The electronic state is 1-A.
 Alpha  occ. eigenvalues --  -10.20304 -10.20287 -10.20244 -10.20235 -10.20223
 Alpha  occ. eigenvalues --  -10.20208 -10.19162 -10.19156 -10.19095 -10.19093
 Alpha  occ. eigenvalues --  -10.19073 -10.19064 -10.19033 -10.19031 -10.19002
 Alpha  occ. eigenvalues --  -10.18998 -10.18976 -10.18974 -10.18923 -10.18909
 Alpha  occ. eigenvalues --  -10.18730 -10.18725 -10.18715 -10.18709  -0.87362
 Alpha  occ. eigenvalues --   -0.86372  -0.84944  -0.83634  -0.78844  -0.76094
 Alpha  occ. eigenvalues --   -0.75150  -0.74601  -0.73936  -0.73586  -0.72938
 Alpha  occ. eigenvalues --   -0.70000  -0.63453  -0.62350  -0.60764  -0.60761
 Alpha  occ. eigenvalues --   -0.58790  -0.58290  -0.57384  -0.56763  -0.53250
 Alpha  occ. eigenvalues --   -0.52141  -0.50206  -0.48120  -0.48077  -0.46729
 Alpha  occ. eigenvalues --   -0.44940  -0.44791  -0.44180  -0.43325  -0.42849
 Alpha  occ. eigenvalues --   -0.42464  -0.42044  -0.41936  -0.41884  -0.41209
 Alpha  occ. eigenvalues --   -0.40936  -0.39816  -0.38940  -0.37935  -0.37489
 Alpha  occ. eigenvalues --   -0.35570  -0.34361  -0.34164  -0.33785  -0.33123
 Alpha  occ. eigenvalues --   -0.32792  -0.32769  -0.32114  -0.28597  -0.25670
 Alpha  occ. eigenvalues --   -0.25416  -0.25016  -0.24359  -0.24116  -0.21821
 Alpha  occ. eigenvalues --   -0.18665
 Alpha virt. eigenvalues --   -0.05575  -0.02707  -0.01421  -0.00515   0.00813
 Alpha virt. eigenvalues --    0.01058   0.01951   0.02642   0.08668   0.08905
 Alpha virt. eigenvalues --    0.09027   0.11160   0.11432   0.11464   0.12541
 Alpha virt. eigenvalues --    0.12985   0.13695   0.14161   0.14505   0.14728
 Alpha virt. eigenvalues --    0.16312   0.16516   0.17501   0.17800   0.18810
 Alpha virt. eigenvalues --    0.19500   0.21139   0.22587   0.23140   0.25098
 Alpha virt. eigenvalues --    0.25669   0.26461   0.26791   0.27608   0.27703
 Alpha virt. eigenvalues --    0.28504   0.28773   0.29910   0.30109   0.31826
 Alpha virt. eigenvalues --    0.33646   0.34185   0.35947   0.36354   0.36457
 Alpha virt. eigenvalues --    0.37994   0.38201   0.39008   0.42471   0.45242
 Alpha virt. eigenvalues --    0.48117   0.49542   0.49611   0.50459   0.52083
 Alpha virt. eigenvalues --    0.52451   0.52947   0.53958   0.54180   0.54384
 Alpha virt. eigenvalues --    0.54497   0.55049   0.55085   0.56523   0.56829
 Alpha virt. eigenvalues --    0.56989   0.57709   0.57916   0.58137   0.58446
 Alpha virt. eigenvalues --    0.58485   0.59310   0.59917   0.59967   0.60160
 Alpha virt. eigenvalues --    0.60417   0.60595   0.60622   0.61279   0.61753
 Alpha virt. eigenvalues --    0.61762   0.62290   0.62541   0.62639   0.62874
 Alpha virt. eigenvalues --    0.62916   0.64231   0.64416   0.65456   0.65939
 Alpha virt. eigenvalues --    0.66236   0.66317   0.67289   0.68234   0.68339
 Alpha virt. eigenvalues --    0.69448   0.69698   0.70772   0.71078   0.74054
 Alpha virt. eigenvalues --    0.75170   0.76971   0.78530   0.81817   0.82121
 Alpha virt. eigenvalues --    0.82533   0.82799   0.83125   0.83481   0.83790
 Alpha virt. eigenvalues --    0.84272   0.84855   0.84934   0.86674   0.86706
 Alpha virt. eigenvalues --    0.87319   0.87620   0.88918   0.89938   0.90594
 Alpha virt. eigenvalues --    0.90778   0.91142   0.91939   0.92115   0.92788
 Alpha virt. eigenvalues --    0.92885   0.93173   0.93656   0.93954   0.94860
 Alpha virt. eigenvalues --    0.95176   0.96298   0.98497   0.99831   1.00368
 Alpha virt. eigenvalues --    1.01529   1.01732   1.02059   1.02533   1.02970
 Alpha virt. eigenvalues --    1.05197   1.05789   1.06607   1.07619   1.08548
 Alpha virt. eigenvalues --    1.09267   1.11856   1.14731   1.15683   1.15735
 Alpha virt. eigenvalues --    1.17934   1.18570   1.19149   1.20487   1.21272
 Alpha virt. eigenvalues --    1.22497   1.23449   1.25481   1.25861   1.28489
 Alpha virt. eigenvalues --    1.30016   1.34139   1.34570   1.35922   1.37053
 Alpha virt. eigenvalues --    1.38020   1.39167   1.40733   1.41009   1.43743
 Alpha virt. eigenvalues --    1.44951   1.45947   1.46528   1.48236   1.49068
 Alpha virt. eigenvalues --    1.49908   1.50089   1.51070   1.51808   1.52379
 Alpha virt. eigenvalues --    1.52660   1.52867   1.57138   1.59369   1.59687
 Alpha virt. eigenvalues --    1.62431   1.62759   1.64509   1.65678   1.65844
 Alpha virt. eigenvalues --    1.67344   1.72543   1.75255   1.79140   1.80058
 Alpha virt. eigenvalues --    1.80394   1.80992   1.82937   1.84854   1.85008
 Alpha virt. eigenvalues --    1.85461   1.85601   1.87261   1.88534   1.89696
 Alpha virt. eigenvalues --    1.89902   1.93578   1.98039   1.98843   1.99205
 Alpha virt. eigenvalues --    1.99475   1.99715   2.00349   2.00791   2.00978
 Alpha virt. eigenvalues --    2.01894   2.02738   2.03224   2.03827   2.06520
 Alpha virt. eigenvalues --    2.08173   2.09104   2.09557   2.10032   2.10367
 Alpha virt. eigenvalues --    2.12224   2.14630   2.16506   2.17427   2.17592
 Alpha virt. eigenvalues --    2.18681   2.20511   2.20713   2.21072   2.22021
 Alpha virt. eigenvalues --    2.23093   2.24390   2.24421   2.26514   2.28678
 Alpha virt. eigenvalues --    2.29755   2.30335   2.34485   2.35112   2.37602
 Alpha virt. eigenvalues --    2.37691   2.37811   2.39052   2.43268   2.45917
 Alpha virt. eigenvalues --    2.48798   2.49243   2.51063   2.52473   2.54929
 Alpha virt. eigenvalues --    2.57138   2.57502   2.57697   2.58639   2.60278
 Alpha virt. eigenvalues --    2.61452   2.62995   2.63028   2.64592   2.65844
 Alpha virt. eigenvalues --    2.67080   2.70082   2.70540   2.72194   2.74163
 Alpha virt. eigenvalues --    2.74227   2.75671   2.75868   2.77123   2.77230
 Alpha virt. eigenvalues --    2.77772   2.77834   2.80303   2.83045   2.86534
 Alpha virt. eigenvalues --    2.86898   2.89868   2.92168   2.97106   3.06562
 Alpha virt. eigenvalues --    3.15026   3.20899   3.24247   3.29981   3.37198
 Alpha virt. eigenvalues --    3.42665   4.06951   4.07528   4.08568   4.09612
 Alpha virt. eigenvalues --    4.10417   4.11709   4.12557   4.13274   4.13419
 Alpha virt. eigenvalues --    4.16071   4.22176   4.27913   4.28585   4.33906
 Alpha virt. eigenvalues --    4.34628   4.37311   4.40273   4.40453   4.43541
 Alpha virt. eigenvalues --    4.46961   4.58734   4.63746   4.71735   4.77635
          Condensed to atoms (all electrons):
               1          2          3          4          5          6
     1  C    4.776951   0.375691  -0.051765   0.005890   0.000557   0.000033
     2  C    0.375691   4.776304   0.535859  -0.033515  -0.036388   0.000590
     3  C   -0.051765   0.535859   4.989921   0.521368  -0.033591   0.005725
     4  C    0.005890  -0.033515   0.521368   4.997125   0.535336  -0.049395
     5  C    0.000557  -0.036388  -0.033591   0.535336   4.779759   0.372167
     6  C    0.000033   0.000590   0.005725  -0.049395   0.372167   4.763822
     7  C   -0.000001   0.000095   0.000438  -0.023476  -0.050843   0.503617
     8  C    0.000000   0.000000  -0.000052   0.000953   0.003891  -0.022801
     9  C    0.000000  -0.000003  -0.000007   0.000102   0.000298  -0.031938
    10  C   -0.000000  -0.000010   0.000003   0.000205   0.006488  -0.026994
    11  C   -0.000008   0.000224   0.000197   0.001444  -0.053009   0.534590
    12  C    0.003079  -0.028804  -0.039322  -0.066227   0.502232  -0.048386
    13  C   -0.048877   0.500724  -0.062622  -0.039514  -0.029513   0.003357
    14  C    0.536079  -0.051752  -0.000120   0.000221   0.000287  -0.000009
    15  C   -0.033504   0.005877   0.000219   0.000004  -0.000014  -0.000000
    16  C   -0.036464   0.000555   0.000291  -0.000014  -0.000005   0.000000
    17  C    0.000553   0.000035  -0.000009  -0.000000   0.000000   0.000000
    18  C    0.000089  -0.000001  -0.000001   0.000000   0.000000  -0.000000
    19  C    0.000000   0.000000   0.000000   0.000000  -0.000000  -0.000000
    20  C   -0.000003   0.000000   0.000000  -0.000000  -0.000000  -0.000000
    21  C   -0.000011  -0.000000   0.000001   0.000000  -0.000000  -0.000000
    22  C    0.000260  -0.000009  -0.000021   0.000001   0.000000  -0.000000
    23  C   -0.028952   0.003077   0.000841  -0.000033   0.000001  -0.000000
    24  C    0.500583  -0.048832  -0.020925   0.000292   0.000075  -0.000001
    25  H   -0.013720  -0.037529   0.348561  -0.041692   0.004382  -0.000153
    26  H   -0.000165   0.004468  -0.041789   0.347945  -0.036702  -0.013880
    27  H   -0.000000   0.000000   0.000250   0.001024  -0.008479  -0.037879
    28  H    0.000000  -0.000000  -0.000001   0.000014  -0.000123   0.004094
    29  H   -0.000000  -0.000000   0.000000   0.000002  -0.000169   0.004615
    30  H   -0.000002   0.000013  -0.000016  -0.000229  -0.014130  -0.038396
    31  H   -0.000107   0.003546   0.000439   0.005679  -0.034708  -0.007868
    32  H   -0.006926  -0.036038   0.005665   0.000431   0.003547  -0.000108
    33  H   -0.037560  -0.013674  -0.000155  -0.000036   0.000016  -0.000003
    34  H    0.004453  -0.000164   0.000001   0.000000  -0.000000  -0.000000
    35  H    0.000000  -0.000000  -0.000000   0.000000   0.000000  -0.000000
    36  H   -0.000000   0.000000   0.000000  -0.000000  -0.000000  -0.000000
    37  H   -0.000000  -0.000000  -0.000000   0.000000   0.000000  -0.000000
    38  H    0.000019  -0.000002  -0.000001   0.000000   0.000000  -0.000000
    39  H    0.003551  -0.000107   0.000011  -0.000001  -0.000000   0.000000
    40  H   -0.036035  -0.006932   0.001101   0.000160  -0.000000  -0.000000
    41  H   -0.000000   0.000000   0.000000  -0.000003   0.000005   0.000583
    42  H    0.000000  -0.000000  -0.000000   0.000000   0.000000  -0.000000
               7          8          9         10         11         12
     1  C   -0.000001   0.000000   0.000000  -0.000000  -0.000008   0.003079
     2  C    0.000095   0.000000  -0.000003  -0.000010   0.000224  -0.028804
     3  C    0.000438  -0.000052  -0.000007   0.000003   0.000197  -0.039322
     4  C   -0.023476   0.000953   0.000102   0.000205   0.001444  -0.066227
     5  C   -0.050843   0.003891   0.000298   0.006488  -0.053009   0.502232
     6  C    0.503617  -0.022801  -0.031938  -0.026994   0.534590  -0.048386
     7  C    5.047700   0.522244  -0.036759  -0.046827  -0.066220   0.007956
     8  C    0.522244   4.881855   0.532560  -0.021087  -0.044136  -0.000075
     9  C   -0.036759   0.532560   4.880507   0.534453  -0.036240   0.000035
    10  C   -0.046827  -0.021087   0.534453   4.881596   0.525258   0.000286
    11  C   -0.066220  -0.044136  -0.036240   0.525258   5.002007  -0.022013
    12  C    0.007956  -0.000075   0.000035   0.000286  -0.022013   5.043224
    13  C   -0.000088   0.000002   0.000001  -0.000043   0.000868   0.512978
    14  C   -0.000001   0.000000   0.000001   0.000001  -0.000019   0.000847
    15  C    0.000000   0.000000  -0.000000   0.000000   0.000001  -0.000032
    16  C    0.000000  -0.000000  -0.000000  -0.000000   0.000000   0.000001
    17  C   -0.000000  -0.000000  -0.000000  -0.000000   0.000000  -0.000000
    18  C   -0.000000   0.000000   0.000000  -0.000000  -0.000000   0.000000
    19  C    0.000000   0.000000  -0.000000  -0.000000   0.000000  -0.000000
    20  C    0.000000  -0.000000  -0.000014   0.000000   0.000001  -0.000000
    21  C   -0.000000  -0.000000   0.000001  -0.000000  -0.000000   0.000000
    22  C   -0.000000   0.000000   0.000001   0.000000  -0.000000   0.000000
    23  C    0.000000  -0.000000  -0.000000   0.000000   0.000000   0.000002
    24  C   -0.000000   0.000000   0.000000   0.000000  -0.000000  -0.000108
    25  H   -0.000026  -0.000001  -0.000000   0.000000   0.000003   0.000384
    26  H    0.010481   0.000336   0.000005  -0.000026  -0.000167   0.006264
    27  H    0.350361  -0.044653   0.004823   0.000296   0.005808  -0.000206
    28  H   -0.041307   0.359645  -0.044495   0.004782   0.000585   0.000003
    29  H    0.000640   0.004701  -0.044630   0.359856  -0.042261  -0.000019
    30  H    0.006370   0.000324   0.004900  -0.044919   0.349192   0.009384
    31  H   -0.000220   0.000005  -0.000004   0.000180   0.001361   0.349299
    32  H    0.000003  -0.000000  -0.000000  -0.000001   0.000012  -0.040690
    33  H    0.000000  -0.000000   0.000000  -0.000000   0.000003   0.000307
    34  H   -0.000000   0.000000   0.000000   0.000000  -0.000000  -0.000001
    35  H   -0.000000   0.000000   0.000000  -0.000000  -0.000000   0.000000
    36  H    0.000000  -0.000000  -0.000000   0.000000   0.000000  -0.000000
    37  H   -0.000000   0.000000   0.000000   0.000000  -0.000000   0.000000
    38  H   -0.000000   0.000000  -0.000000   0.000000  -0.000000  -0.000000
    39  H    0.000000  -0.000000  -0.000000  -0.000000   0.000000  -0.000000
    40  H   -0.000000   0.000000   0.000000   0.000000  -0.000000   0.000005
    41  H    0.004909  -0.042304   0.359960  -0.042494   0.005063  -0.000001
    42  H   -0.000000   0.000000   0.000008  -0.000000  -0.000000   0.000000
              13         14         15         16         17         18
     1  C   -0.048877   0.536079  -0.033504  -0.036464   0.000553   0.000089
     2  C    0.500724  -0.051752   0.005877   0.000555   0.000035  -0.000001
     3  C   -0.062622  -0.000120   0.000219   0.000291  -0.000009  -0.000001
     4  C   -0.039514   0.000221   0.000004  -0.000014  -0.000000   0.000000
     5  C   -0.029513   0.000287  -0.000014  -0.000005   0.000000   0.000000
     6  C    0.003357  -0.000009  -0.000000   0.000000   0.000000  -0.000000
     7  C   -0.000088  -0.000001   0.000000   0.000000  -0.000000  -0.000000
     8  C    0.000002   0.000000   0.000000  -0.000000  -0.000000   0.000000
     9  C    0.000001   0.000001  -0.000000  -0.000000  -0.000000   0.000000
    10  C   -0.000043   0.000001   0.000000  -0.000000  -0.000000  -0.000000
    11  C    0.000868  -0.000019   0.000001   0.000000   0.000000  -0.000000
    12  C    0.512978   0.000847  -0.000032   0.000001  -0.000000   0.000000
    13  C    5.040303  -0.020897   0.000288   0.000074  -0.000000  -0.000000
    14  C   -0.020897   4.990285   0.520930  -0.033940   0.005837   0.000410
    15  C    0.000288   0.520930   4.993494   0.536561  -0.049811  -0.022936
    16  C    0.000074  -0.033940   0.536561   4.783209   0.371867  -0.050575
    17  C   -0.000000   0.005837  -0.049811   0.371867   4.766272   0.502123
    18  C   -0.000000   0.000410  -0.022936  -0.050575   0.502123   5.047539
    19  C    0.000000  -0.000045   0.000959   0.003747  -0.022341   0.521109
    20  C    0.000000  -0.000008   0.000121   0.000281  -0.032058  -0.036518
    21  C    0.000000   0.000001   0.000242   0.006607  -0.027227  -0.047041
    22  C   -0.000000   0.000236   0.000448  -0.053454   0.535715  -0.064555
    23  C   -0.000107  -0.039428  -0.064461   0.500695  -0.048237   0.007915
    24  C    0.007749  -0.062594  -0.039489  -0.029364   0.003213  -0.000098
    25  H    0.006324  -0.000157  -0.000037   0.000017  -0.000003   0.000000
    26  H    0.000412   0.000001   0.000000  -0.000000  -0.000000  -0.000000
    27  H    0.000005  -0.000000   0.000000   0.000000   0.000000  -0.000000
    28  H   -0.000000   0.000000  -0.000000  -0.000000   0.000000   0.000000
    29  H   -0.000001  -0.000000   0.000000   0.000000   0.000000  -0.000000
    30  H    0.000310  -0.000001   0.000000   0.000000  -0.000000  -0.000000
    31  H   -0.040540   0.000010  -0.000001  -0.000000   0.000000   0.000000
    32  H    0.350333   0.001110   0.000159  -0.000000  -0.000000  -0.000000
    33  H    0.011002   0.348573  -0.041623   0.004415  -0.000156  -0.000026
    34  H   -0.000027  -0.041577   0.348177  -0.037088  -0.013675   0.010819
    35  H   -0.000000   0.000219   0.000907  -0.007850  -0.038578   0.350833
    36  H    0.000000  -0.000001   0.000013  -0.000122   0.004070  -0.041198
    37  H   -0.000000   0.000000   0.000002  -0.000173   0.004631   0.000649
    38  H    0.000000  -0.000022  -0.000225  -0.014218  -0.038835   0.006386
    39  H    0.000003   0.000433   0.005654  -0.035325  -0.007330  -0.000210
    40  H   -0.000187   0.005658   0.000428   0.003550  -0.000106   0.000003
    41  H    0.000000  -0.000000   0.000000   0.000000  -0.000000  -0.000000
    42  H   -0.000000   0.000000  -0.000003   0.000005   0.000579   0.004896
              19         20         21         22         23         24
     1  C    0.000000  -0.000003  -0.000011   0.000260  -0.028952   0.500583
     2  C    0.000000   0.000000  -0.000000  -0.000009   0.003077  -0.048832
     3  C    0.000000   0.000000   0.000001  -0.000021   0.000841  -0.020925
     4  C    0.000000  -0.000000   0.000000   0.000001  -0.000033   0.000292
     5  C   -0.000000  -0.000000  -0.000000   0.000000   0.000001   0.000075
     6  C   -0.000000  -0.000000  -0.000000  -0.000000  -0.000000  -0.000001
     7  C    0.000000   0.000000  -0.000000  -0.000000   0.000000  -0.000000
     8  C    0.000000  -0.000000  -0.000000   0.000000  -0.000000   0.000000
     9  C   -0.000000  -0.000014   0.000001   0.000001  -0.000000   0.000000
    10  C   -0.000000   0.000000  -0.000000   0.000000   0.000000   0.000000
    11  C    0.000000   0.000001  -0.000000  -0.000000   0.000000  -0.000000
    12  C   -0.000000  -0.000000   0.000000   0.000000   0.000002  -0.000108
    13  C    0.000000   0.000000   0.000000  -0.000000  -0.000107   0.007749
    14  C   -0.000045  -0.000008   0.000001   0.000236  -0.039428  -0.062594
    15  C    0.000959   0.000121   0.000242   0.000448  -0.064461  -0.039489
    16  C    0.003747   0.000281   0.006607  -0.053454   0.500695  -0.029364
    17  C   -0.022341  -0.032058  -0.027227   0.535715  -0.048237   0.003213
    18  C    0.521109  -0.036518  -0.047041  -0.064555   0.007915  -0.000098
    19  C    4.882373   0.533008  -0.021148  -0.043870  -0.000086   0.000002
    20  C    0.533008   4.879365   0.534925  -0.036302   0.000033   0.000001
    21  C   -0.021148   0.534925   4.882042   0.524808   0.000283  -0.000039
    22  C   -0.043870  -0.036302   0.524808   4.998564  -0.021827   0.000876
    23  C   -0.000086   0.000033   0.000283  -0.021827   5.043664   0.511798
    24  C    0.000002   0.000001  -0.000039   0.000876   0.511798   5.041742
    25  H   -0.000000   0.000000  -0.000000   0.000002   0.000305   0.011066
    26  H    0.000000   0.000000   0.000000  -0.000000  -0.000001  -0.000027
    27  H    0.000000   0.000000  -0.000000  -0.000000   0.000000  -0.000000
    28  H   -0.000000  -0.000000   0.000000   0.000000  -0.000000   0.000000
    29  H    0.000000   0.000000   0.000000  -0.000000   0.000000  -0.000000
    30  H    0.000000  -0.000000   0.000000  -0.000000  -0.000000   0.000000
    31  H   -0.000000  -0.000000  -0.000000   0.000000  -0.000000   0.000003
    32  H    0.000000   0.000000   0.000000  -0.000000   0.000005  -0.000186
    33  H   -0.000001  -0.000000   0.000000   0.000002   0.000388   0.006303
    34  H    0.000310   0.000008  -0.000032  -0.000154   0.006274   0.000405
    35  H   -0.044579   0.004801   0.000291   0.005792  -0.000189   0.000005
    36  H    0.359557  -0.044477   0.004796   0.000574   0.000003  -0.000000
    37  H    0.004694  -0.044577   0.359755  -0.042235  -0.000020  -0.000001
    38  H    0.000322   0.004894  -0.044650   0.349292   0.009972   0.000311
    39  H    0.000005  -0.000004   0.000165   0.001156   0.349763  -0.040455
    40  H   -0.000000  -0.000000  -0.000001   0.000012  -0.040576   0.350234
    41  H    0.000000   0.000008  -0.000000  -0.000000   0.000000  -0.000000
    42  H   -0.042331   0.359960  -0.042522   0.005078  -0.000001   0.000000
              25         26         27         28         29         30
     1  C   -0.013720  -0.000165  -0.000000   0.000000  -0.000000  -0.000002
     2  C   -0.037529   0.004468   0.000000  -0.000000  -0.000000   0.000013
     3  C    0.348561  -0.041789   0.000250  -0.000001   0.000000  -0.000016
     4  C   -0.041692   0.347945   0.001024   0.000014   0.000002  -0.000229
     5  C    0.004382  -0.036702  -0.008479  -0.000123  -0.000169  -0.014130
     6  C   -0.000153  -0.013880  -0.037879   0.004094   0.004615  -0.038396
     7  C   -0.000026   0.010481   0.350361  -0.041307   0.000640   0.006370
     8  C   -0.000001   0.000336  -0.044653   0.359645   0.004701   0.000324
     9  C   -0.000000   0.000005   0.004823  -0.044495  -0.044630   0.004900
    10  C    0.000000  -0.000026   0.000296   0.004782   0.359856  -0.044919
    11  C    0.000003  -0.000167   0.005808   0.000585  -0.042261   0.349192
    12  C    0.000384   0.006264  -0.000206   0.000003  -0.000019   0.009384
    13  C    0.006324   0.000412   0.000005  -0.000000  -0.000001   0.000310
    14  C   -0.000157   0.000001  -0.000000   0.000000  -0.000000  -0.000001
    15  C   -0.000037   0.000000   0.000000  -0.000000   0.000000   0.000000
    16  C    0.000017  -0.000000   0.000000  -0.000000   0.000000   0.000000
    17  C   -0.000003  -0.000000   0.000000   0.000000   0.000000  -0.000000
    18  C    0.000000  -0.000000  -0.000000   0.000000  -0.000000  -0.000000
    19  C   -0.000000   0.000000   0.000000  -0.000000   0.000000   0.000000
    20  C    0.000000   0.000000   0.000000  -0.000000   0.000000  -0.000000
    21  C   -0.000000   0.000000  -0.000000   0.000000   0.000000   0.000000
    22  C    0.000002  -0.000000  -0.000000   0.000000  -0.000000  -0.000000
    23  C    0.000305  -0.000001   0.000000  -0.000000   0.000000  -0.000000
    24  C    0.011066  -0.000027  -0.000000   0.000000  -0.000000   0.000000
    25  H    0.595192  -0.007260   0.000006   0.000000   0.000000   0.000000
    26  H   -0.007260   0.595616   0.003253   0.000024   0.000000  -0.000004
    27  H    0.000006   0.003253   0.599811  -0.007247   0.000015  -0.000194
    28  H    0.000000   0.000024  -0.007247   0.600630  -0.000207   0.000014
    29  H    0.000000   0.000000   0.000015  -0.000207   0.601195  -0.007559
    30  H    0.000000  -0.000004  -0.000194   0.000014  -0.007559   0.604196
    31  H    0.000014  -0.000198   0.000001   0.000000   0.000006   0.002910
    32  H   -0.000198   0.000014   0.000000   0.000000   0.000000   0.000016
    33  H   -0.000008   0.000000   0.000000   0.000000  -0.000000   0.000009
    34  H    0.000000   0.000000  -0.000000   0.000000   0.000000  -0.000000
    35  H    0.000000  -0.000000  -0.000000   0.000000  -0.000000   0.000000
    36  H    0.000000   0.000000   0.000000  -0.000000   0.000000   0.000000
    37  H   -0.000000   0.000000  -0.000000   0.000000   0.000000  -0.000000
    38  H    0.000013  -0.000000   0.000000  -0.000000  -0.000000   0.000000
    39  H    0.000011   0.000000   0.000000  -0.000000   0.000000   0.000000
    40  H    0.002865   0.000004   0.000000   0.000000  -0.000000   0.000000
    41  H   -0.000000  -0.000000  -0.000145  -0.004606  -0.004628  -0.000153
    42  H    0.000000  -0.000000  -0.000000  -0.000000  -0.000000  -0.000000
              31         32         33         34         35         36
     1  C   -0.000107  -0.006926  -0.037560   0.004453   0.000000  -0.000000
     2  C    0.003546  -0.036038  -0.013674  -0.000164  -0.000000   0.000000
     3  C    0.000439   0.005665  -0.000155   0.000001  -0.000000   0.000000
     4  C    0.005679   0.000431  -0.000036   0.000000   0.000000  -0.000000
     5  C   -0.034708   0.003547   0.000016  -0.000000   0.000000  -0.000000
     6  C   -0.007868  -0.000108  -0.000003  -0.000000  -0.000000  -0.000000
     7  C   -0.000220   0.000003   0.000000  -0.000000  -0.000000   0.000000
     8  C    0.000005  -0.000000  -0.000000   0.000000   0.000000  -0.000000
     9  C   -0.000004  -0.000000   0.000000   0.000000   0.000000  -0.000000
    10  C    0.000180  -0.000001  -0.000000   0.000000  -0.000000   0.000000
    11  C    0.001361   0.000012   0.000003  -0.000000  -0.000000   0.000000
    12  C    0.349299  -0.040690   0.000307  -0.000001   0.000000  -0.000000
    13  C   -0.040540   0.350333   0.011002  -0.000027  -0.000000   0.000000
    14  C    0.000010   0.001110   0.348573  -0.041577   0.000219  -0.000001
    15  C   -0.000001   0.000159  -0.041623   0.348177   0.000907   0.000013
    16  C   -0.000000  -0.000000   0.004415  -0.037088  -0.007850  -0.000122
    17  C    0.000000  -0.000000  -0.000156  -0.013675  -0.038578   0.004070
    18  C    0.000000  -0.000000  -0.000026   0.010819   0.350833  -0.041198
    19  C   -0.000000   0.000000  -0.000001   0.000310  -0.044579   0.359557
    20  C   -0.000000   0.000000  -0.000000   0.000008   0.004801  -0.044477
    21  C   -0.000000   0.000000   0.000000  -0.000032   0.000291   0.004796
    22  C    0.000000  -0.000000   0.000002  -0.000154   0.005792   0.000574
    23  C   -0.000000   0.000005   0.000388   0.006274  -0.000189   0.000003
    24  C    0.000003  -0.000186   0.006303   0.000405   0.000005  -0.000000
    25  H    0.000014  -0.000198  -0.000008   0.000000   0.000000   0.000000
    26  H   -0.000198   0.000014   0.000000   0.000000  -0.000000   0.000000
    27  H    0.000001   0.000000   0.000000  -0.000000  -0.000000   0.000000
    28  H    0.000000   0.000000   0.000000   0.000000   0.000000  -0.000000
    29  H    0.000006   0.000000  -0.000000   0.000000  -0.000000   0.000000
    30  H    0.002910   0.000016   0.000009  -0.000000   0.000000   0.000000
    31  H    0.590777  -0.006638   0.000011   0.000000   0.000000  -0.000000
    32  H   -0.006638   0.590939   0.002858   0.000004  -0.000000   0.000000
    33  H    0.000011   0.002858   0.594842  -0.007231   0.000005   0.000000
    34  H    0.000000   0.000004  -0.007231   0.594284   0.003088   0.000023
    35  H    0.000000  -0.000000   0.000005   0.003088   0.599668  -0.007159
    36  H   -0.000000   0.000000   0.000000   0.000023  -0.007159   0.600376
    37  H    0.000000  -0.000000   0.000000   0.000000   0.000015  -0.000207
    38  H    0.000000   0.000000   0.000000  -0.000006  -0.000193   0.000014
    39  H    0.000000   0.000000   0.000014  -0.000197   0.000001   0.000000
    40  H    0.000000   0.000001  -0.000198   0.000014   0.000000   0.000000
    41  H   -0.000000  -0.000000   0.000000  -0.000000  -0.000000  -0.000000
    42  H    0.000000  -0.000000  -0.000000  -0.000000  -0.000145  -0.004620
              37         38         39         40         41         42
     1  C   -0.000000   0.000019   0.003551  -0.036035  -0.000000   0.000000
     2  C   -0.000000  -0.000002  -0.000107  -0.006932   0.000000  -0.000000
     3  C   -0.000000  -0.000001   0.000011   0.001101   0.000000  -0.000000
     4  C    0.000000   0.000000  -0.000001   0.000160  -0.000003   0.000000
     5  C    0.000000   0.000000  -0.000000  -0.000000   0.000005   0.000000
     6  C   -0.000000  -0.000000   0.000000  -0.000000   0.000583  -0.000000
     7  C   -0.000000  -0.000000   0.000000  -0.000000   0.004909  -0.000000
     8  C    0.000000   0.000000  -0.000000   0.000000  -0.042304   0.000000
     9  C    0.000000  -0.000000  -0.000000   0.000000   0.359960   0.000008
    10  C    0.000000   0.000000  -0.000000   0.000000  -0.042494  -0.000000
    11  C   -0.000000  -0.000000   0.000000  -0.000000   0.005063  -0.000000
    12  C    0.000000  -0.000000  -0.000000   0.000005  -0.000001   0.000000
    13  C   -0.000000   0.000000   0.000003  -0.000187   0.000000  -0.000000
    14  C    0.000000  -0.000022   0.000433   0.005658  -0.000000   0.000000
    15  C    0.000002  -0.000225   0.005654   0.000428   0.000000  -0.000003
    16  C   -0.000173  -0.014218  -0.035325   0.003550   0.000000   0.000005
    17  C    0.004631  -0.038835  -0.007330  -0.000106  -0.000000   0.000579
    18  C    0.000649   0.006386  -0.000210   0.000003  -0.000000   0.004896
    19  C    0.004694   0.000322   0.000005  -0.000000   0.000000  -0.042331
    20  C   -0.044577   0.004894  -0.000004  -0.000000   0.000008   0.359960
    21  C    0.359755  -0.044650   0.000165  -0.000001  -0.000000  -0.042522
    22  C   -0.042235   0.349292   0.001156   0.000012  -0.000000   0.005078
    23  C   -0.000020   0.009972   0.349763  -0.040576   0.000000  -0.000001
    24  C   -0.000001   0.000311  -0.040455   0.350234  -0.000000   0.000000
    25  H   -0.000000   0.000013   0.000011   0.002865  -0.000000   0.000000
    26  H    0.000000  -0.000000   0.000000   0.000004  -0.000000  -0.000000
    27  H   -0.000000   0.000000   0.000000   0.000000  -0.000145  -0.000000
    28  H    0.000000  -0.000000  -0.000000   0.000000  -0.004606  -0.000000
    29  H    0.000000  -0.000000   0.000000  -0.000000  -0.004628  -0.000000
    30  H   -0.000000   0.000000   0.000000   0.000000  -0.000153  -0.000000
    31  H    0.000000   0.000000   0.000000   0.000000  -0.000000   0.000000
    32  H   -0.000000   0.000000   0.000000   0.000001  -0.000000  -0.000000
    33  H    0.000000   0.000000   0.000014  -0.000198   0.000000  -0.000000
    34  H    0.000000  -0.000006  -0.000197   0.000014  -0.000000  -0.000000
    35  H    0.000015  -0.000193   0.000001   0.000000  -0.000000  -0.000145
    36  H   -0.000207   0.000014   0.000000   0.000000  -0.000000  -0.004620
    37  H    0.601157  -0.007531   0.000005   0.000000  -0.000000  -0.004664
    38  H   -0.007531   0.603321   0.002760   0.000017  -0.000000  -0.000154
    39  H    0.000005   0.002760   0.590575  -0.006639   0.000000  -0.000000
    40  H    0.000000   0.000017  -0.006639   0.590844  -0.000000  -0.000000
    41  H   -0.000000  -0.000000   0.000000  -0.000000   0.591651   0.000014
    42  H   -0.004664  -0.000154  -0.000000  -0.000000   0.000014   0.591837
 Mulliken charges:
               1
     1  C    0.086312
     2  C    0.086701
     3  C   -0.160496
     4  C   -0.164062
     5  C    0.088633
     6  C    0.084619
     7  C   -0.189047
     8  C   -0.131407
     9  C   -0.123562
    10  C   -0.131004
    11  C   -0.162543
    12  C   -0.190403
    13  C   -0.192316
    14  C   -0.160570
    15  C   -0.162348
    16  C    0.086718
    17  C    0.083474
    18  C   -0.189610
    19  C   -0.131685
    20  C   -0.123445
    21  C   -0.131245
    22  C   -0.160393
    23  C   -0.191098
    24  C   -0.192535
    25  H    0.131638
    26  H    0.131396
    27  H    0.133150
    28  H    0.128195
[...]
    31  H   -0.039631  -0.000003  -0.000000  -0.000000  -0.000000   0.000000
    32  H    0.348173   0.005674  -0.000015  -0.000003  -0.000000   0.000000
    33  H    0.005674   0.348173  -0.039761   0.003291  -0.000172  -0.000003
    34  H   -0.000003  -0.039632   0.348464  -0.040733  -0.009429   0.005500
    35  H    0.000000  -0.000021   0.005640  -0.010018  -0.042040   0.350691
    36  H    0.000000  -0.000000  -0.000002  -0.000180   0.003423  -0.038864
    37  H   -0.000000  -0.000000   0.000001  -0.000180   0.003423   0.000838
    38  H    0.000000  -0.000008  -0.000006  -0.010019  -0.042040   0.006359
    39  H    0.000001   0.000560   0.006236  -0.040732  -0.009430  -0.000000
    40  H   -0.000029   0.006255   0.000555   0.003291  -0.000172   0.000001
    41  H    0.000000   0.000000  -0.000000   0.000000   0.000000   0.000000
    42  H    0.000000   0.000000   0.000000   0.000004   0.000611   0.004777
              19         20         21         22         23         24
     1  C   -0.000000   0.000000  -0.000000   0.000003  -0.020961   0.520507
     2  C   -0.000000   0.000000  -0.000000   0.000000   0.005990  -0.048029
     3  C    0.000000  -0.000000   0.000000  -0.000000   0.000346  -0.012899
     4  C    0.000000  -0.000000  -0.000000   0.000000  -0.000002   0.000346
     5  C   -0.000000   0.000000  -0.000000  -0.000000  -0.000000   0.000003
     6  C    0.000000   0.000000   0.000000  -0.000000  -0.000000   0.000000
     7  C    0.000000   0.000000   0.000000   0.000000   0.000000  -0.000000
     8  C    0.000000   0.000000   0.000000   0.000000  -0.000000   0.000000
     9  C    0.000000   0.000000   0.000000   0.000000  -0.000000  -0.000000
    10  C    0.000000   0.000000   0.000000   0.000000   0.000000   0.000000
    11  C    0.000000   0.000000   0.000000   0.000000   0.000000   0.000000
    12  C   -0.000000  -0.000000   0.000000   0.000000   0.000002  -0.000173
    13  C    0.000000  -0.000000   0.000000   0.000000  -0.000173   0.005738
    14  C   -0.000002  -0.000000   0.000002  -0.000178  -0.047259  -0.053760
    15  C    0.000346   0.000003  -0.000173   0.005649  -0.052247  -0.047259
    16  C    0.005983   0.000679   0.005983  -0.047479   0.520774  -0.021570
    17  C   -0.014023  -0.033261  -0.014021   0.522450  -0.048046   0.006001
    18  C    0.514451  -0.037341  -0.043740  -0.060449   0.005649  -0.000178
    19  C    4.874013   0.548877  -0.026383  -0.043741  -0.000173   0.000002
    20  C    0.548877   4.853946   0.548874  -0.037340   0.000003  -0.000000
    21  C   -0.026383   0.548874   4.874015   0.514452   0.000346  -0.000002
    22  C   -0.043741  -0.037340   0.514452   5.003499  -0.012845   0.000362
    23  C   -0.000173   0.000003   0.000346  -0.012845   5.030912   0.478147
    24  C    0.000002  -0.000000  -0.000002   0.000362   0.478147   5.033337
    25  H    0.000000   0.000000  -0.000000   0.000000  -0.000015   0.005674
    26  H   -0.000000  -0.000000   0.000000   0.000000  -0.000000  -0.000003
    27  H    0.000000   0.000000   0.000000   0.000000  -0.000000   0.000000
    28  H    0.000000   0.000000   0.000000   0.000000   0.000000   0.000000
    29  H    0.000000   0.000000   0.000000   0.000000  -0.000000  -0.000000
    30  H    0.000000   0.000000   0.000000   0.000000   0.000000   0.000000
    31  H    0.000000  -0.000000  -0.000000  -0.000000  -0.000000   0.000001
    32  H   -0.000000   0.000000   0.000000   0.000000  -0.000008  -0.000029
    33  H   -0.000000  -0.000000  -0.000000   0.000001   0.000554   0.006255
    34  H   -0.000032  -0.000006  -0.000009  -0.000000   0.006236   0.000560
    35  H   -0.044383   0.004751   0.000304   0.006359  -0.000006  -0.000008
    36  H    0.356950  -0.043082   0.004588   0.000838   0.000001  -0.000000
    37  H    0.004588  -0.043082   0.356950  -0.038863  -0.000002  -0.000000
    38  H    0.000304   0.004752  -0.044383   0.350689   0.005641  -0.000021
    39  H   -0.000009  -0.000006  -0.000032   0.005501   0.348463  -0.039632
    40  H   -0.000000  -0.000000  -0.000000  -0.000003  -0.039760   0.348174
    41  H    0.000000   0.000000   0.000000   0.000000  -0.000000   0.000000
    42  H   -0.043150   0.358993  -0.043150   0.004777   0.000000   0.000000
              25         26         27         28         29         30
     1  C   -0.009878  -0.000172  -0.000000  -0.000000  -0.000000  -0.000000
     2  C   -0.040319   0.003264  -0.000004  -0.000000  -0.000000  -0.000004
     3  C    0.348173  -0.039632  -0.000021  -0.000000  -0.000000  -0.000008
     4  C   -0.039761   0.348465   0.005640  -0.000002   0.000001  -0.000006
     5  C    0.003291  -0.040734  -0.010017  -0.000180  -0.000180  -0.010020
     6  C   -0.000172  -0.009428  -0.042040   0.003423   0.003423  -0.042040
     7  C   -0.000003   0.005500   0.350692  -0.038864   0.000838   0.006359
     8  C   -0.000000  -0.000032  -0.044383   0.356950   0.004588   0.000304
     9  C   -0.000000  -0.000006   0.004751  -0.043081  -0.043082   0.004752
    10  C   -0.000000  -0.000009   0.000304   0.004588   0.356950  -0.044383
    11  C    0.000001  -0.000000   0.006359   0.000838  -0.038863   0.350688
    12  C    0.000554   0.006236  -0.000006   0.000001  -0.000002   0.005641
    13  C    0.006255   0.000560  -0.000008  -0.000000  -0.000000  -0.000021
    14  C   -0.000029   0.000001   0.000000  -0.000000   0.000000   0.000000
    15  C   -0.000008  -0.000000   0.000000  -0.000000   0.000000  -0.000000
    16  C   -0.000003  -0.000000   0.000000  -0.000000  -0.000000   0.000000
    17  C   -0.000000  -0.000000  -0.000000   0.000000   0.000000  -0.000000
    18  C    0.000000  -0.000000   0.000000   0.000000   0.000000   0.000000
    19  C    0.000000  -0.000000   0.000000   0.000000   0.000000   0.000000
    20  C    0.000000  -0.000000   0.000000   0.000000   0.000000   0.000000
    21  C   -0.000000   0.000000   0.000000   0.000000   0.000000   0.000000
    22  C    0.000000   0.000000   0.000000   0.000000   0.000000   0.000000
    23  C   -0.000015  -0.000000  -0.000000   0.000000  -0.000000   0.000000
    24  C    0.005674  -0.000003   0.000000   0.000000  -0.000000   0.000000
    25  H    0.595770  -0.005339   0.000004   0.000000   0.000000   0.000000
    26  H   -0.005339   0.595232   0.002738   0.000005   0.000000   0.000000
    27  H    0.000004   0.002738   0.599902  -0.005624   0.000017  -0.000173
    28  H    0.000000   0.000005  -0.005624   0.597166  -0.000189   0.000017
    29  H    0.000000   0.000000   0.000017  -0.000189   0.597165  -0.005624
    30  H    0.000000   0.000000  -0.000173   0.000017  -0.005624   0.599906
    31  H    0.000019  -0.000182   0.000000   0.000000   0.000005   0.002739
    32  H   -0.000181   0.000019   0.000000   0.000000   0.000000   0.000004
    33  H   -0.000001   0.000000   0.000000  -0.000000   0.000000   0.000000
    34  H    0.000000   0.000000  -0.000000   0.000000  -0.000000   0.000000
    35  H    0.000000  -0.000000  -0.000000   0.000000   0.000000   0.000000
    36  H   -0.000000   0.000000   0.000000   0.000000   0.000000   0.000000
    37  H    0.000000  -0.000000   0.000000   0.000000   0.000000   0.000000
    38  H    0.000000   0.000000   0.000000   0.000000   0.000000  -0.000000
    39  H    0.000003   0.000000   0.000000  -0.000000   0.000000  -0.000000
    40  H    0.002836   0.000003   0.000000   0.000000  -0.000000   0.000000
    41  H   -0.000000  -0.000000  -0.000176  -0.005509  -0.005509  -0.000176
    42  H    0.000000   0.000000   0.000000   0.000000   0.000000   0.000000
              31         32         33         34         35         36
     1  C   -0.000172  -0.009879  -0.040319   0.003264  -0.000004  -0.000000
     2  C    0.003263  -0.040320  -0.009879  -0.000172  -0.000000  -0.000000
     3  C    0.000560   0.006255  -0.000029   0.000001   0.000000  -0.000000
     4  C    0.006236   0.000555  -0.000008  -0.000000   0.000000  -0.000000
     5  C   -0.040732   0.003291  -0.000003  -0.000000   0.000000  -0.000000
     6  C   -0.009431  -0.000172  -0.000000  -0.000000  -0.000000   0.000000
     7  C   -0.000000   0.000001   0.000000  -0.000000   0.000000   0.000000
     8  C   -0.000009  -0.000000   0.000000  -0.000000   0.000000   0.000000
     9  C   -0.000006  -0.000000   0.000000  -0.000000   0.000000   0.000000
    10  C   -0.000032  -0.000000  -0.000000   0.000000   0.000000   0.000000
    11  C    0.005501  -0.000003   0.000000   0.000000   0.000000   0.000000
    12  C    0.348462  -0.039760  -0.000015  -0.000000  -0.000000   0.000000
    13  C   -0.039631   0.348173   0.005674  -0.000003   0.000000   0.000000
    14  C   -0.000003   0.005674   0.348173  -0.039632  -0.000021  -0.000000
    15  C   -0.000000  -0.000015  -0.039761   0.348464   0.005640  -0.000002
    16  C   -0.000000  -0.000003   0.003291  -0.040733  -0.010018  -0.000180
    17  C   -0.000000  -0.000000  -0.000172  -0.009429  -0.042040   0.003423
    18  C    0.000000   0.000000  -0.000003   0.005500   0.350691  -0.038864
    19  C    0.000000  -0.000000  -0.000000  -0.000032  -0.044383   0.356950
    20  C   -0.000000   0.000000  -0.000000  -0.000006   0.004751  -0.043082
    21  C   -0.000000   0.000000  -0.000000  -0.000009   0.000304   0.004588
    22  C   -0.000000   0.000000   0.000001  -0.000000   0.006359   0.000838
    23  C   -0.000000  -0.000008   0.000554   0.006236  -0.000006   0.000001
    24  C    0.000001  -0.000029   0.006255   0.000560  -0.000008  -0.000000
    25  H    0.000019  -0.000181  -0.000001   0.000000   0.000000  -0.000000
    26  H   -0.000182   0.000019   0.000000   0.000000  -0.000000   0.000000
    27  H    0.000000   0.000000   0.000000  -0.000000  -0.000000   0.000000
    28  H    0.000000   0.000000  -0.000000   0.000000   0.000000   0.000000
    29  H    0.000005   0.000000   0.000000  -0.000000   0.000000   0.000000
    30  H    0.002739   0.000004   0.000000   0.000000   0.000000   0.000000
    31  H    0.595233  -0.005339   0.000003   0.000000   0.000000  -0.000000
    32  H   -0.005339   0.595770   0.002836   0.000003   0.000000   0.000000
    33  H    0.000003   0.002836   0.595771  -0.005339   0.000004   0.000000
    34  H    0.000000   0.000003  -0.005339   0.595233   0.002738   0.000005
    35  H    0.000000   0.000000   0.000004   0.002738   0.599902  -0.005624
    36  H   -0.000000   0.000000   0.000000   0.000005  -0.005624   0.597167
    37  H    0.000000  -0.000000   0.000000   0.000000   0.000017  -0.000189
    38  H   -0.000000   0.000000   0.000000   0.000000  -0.000173   0.000017
    39  H    0.000000   0.000000   0.000019  -0.000182   0.000000   0.000000
    40  H    0.000000  -0.000001  -0.000181   0.000019   0.000000   0.000000
    41  H   -0.000000  -0.000000   0.000000   0.000000   0.000000   0.000000
    42  H    0.000000   0.000000  -0.000000  -0.000000  -0.000176  -0.005509
              37         38         39         40         41         42
     1  C   -0.000000  -0.000004   0.003263  -0.040320  -0.000000  -0.000000
     2  C   -0.000000  -0.000000  -0.000172  -0.009879  -0.000000  -0.000000
     3  C    0.000000   0.000000  -0.000003   0.005674   0.000000   0.000000
     4  C    0.000000  -0.000000  -0.000000  -0.000015   0.000000  -0.000000
     5  C   -0.000000   0.000000  -0.000000  -0.000003   0.000004   0.000000
     6  C    0.000000  -0.000000  -0.000000  -0.000000   0.000611   0.000000
     7  C    0.000000   0.000000   0.000000   0.000000   0.004777   0.000000
     8  C    0.000000   0.000000   0.000000  -0.000000  -0.043150   0.000000
     9  C    0.000000   0.000000  -0.000000   0.000000   0.358994   0.000000
    10  C    0.000000   0.000000  -0.000000   0.000000  -0.043150   0.000000
    11  C    0.000000   0.000000  -0.000000   0.000000   0.004777   0.000000
    12  C   -0.000000   0.000000  -0.000000  -0.000008   0.000000  -0.000000
    13  C   -0.000000   0.000000   0.000001  -0.000029   0.000000   0.000000
    14  C   -0.000000  -0.000008   0.000560   0.006255   0.000000   0.000000
    15  C    0.000001  -0.000006   0.006236   0.000555  -0.000000   0.000000
    16  C   -0.000180  -0.010019  -0.040732   0.003291   0.000000   0.000004
    17  C    0.003423  -0.042040  -0.009430  -0.000172   0.000000   0.000611
    18  C    0.000838   0.006359  -0.000000   0.000001   0.000000   0.004777
    19  C    0.004588   0.000304  -0.000009  -0.000000   0.000000  -0.043150
    20  C   -0.043082   0.004752  -0.000006  -0.000000   0.000000   0.358993
    21  C    0.356950  -0.044383  -0.000032  -0.000000   0.000000  -0.043150
    22  C   -0.038863   0.350689   0.005501  -0.000003   0.000000   0.004777
    23  C   -0.000002   0.005641   0.348463  -0.039760  -0.000000   0.000000
    24  C   -0.000000  -0.000021  -0.039632   0.348174   0.000000   0.000000
    25  H    0.000000   0.000000   0.000003   0.002836  -0.000000   0.000000
    26  H   -0.000000   0.000000   0.000000   0.000003  -0.000000   0.000000
    27  H    0.000000   0.000000   0.000000   0.000000  -0.000176   0.000000
    28  H    0.000000   0.000000  -0.000000   0.000000  -0.005509   0.000000
    29  H    0.000000   0.000000   0.000000  -0.000000  -0.005509   0.000000
    30  H    0.000000  -0.000000  -0.000000   0.000000  -0.000176   0.000000
    31  H    0.000000  -0.000000   0.000000   0.000000  -0.000000   0.000000
    32  H   -0.000000   0.000000   0.000000  -0.000001  -0.000000   0.000000
    33  H    0.000000   0.000000   0.000019  -0.000181   0.000000  -0.000000
    34  H    0.000000   0.000000  -0.000182   0.000019   0.000000  -0.000000
    35  H    0.000017  -0.000173   0.000000   0.000000   0.000000  -0.000176
    36  H   -0.000189   0.000017   0.000000   0.000000   0.000000  -0.005509
    37  H    0.597165  -0.005625   0.000005   0.000000   0.000000  -0.005509
    38  H   -0.005625   0.599905   0.002739   0.000004   0.000000  -0.000176
    39  H    0.000005   0.002739   0.595233  -0.005339   0.000000  -0.000000
    40  H    0.000000   0.000004  -0.005339   0.595770   0.000000  -0.000000
    41  H    0.000000   0.000000   0.000000   0.000000   0.598812   0.000000
    42  H   -0.005509  -0.000176  -0.000000  -0.000000   0.000000   0.598811
 Mulliken charges:
               1
     1  C    0.095797
     2  C    0.095797
     3  C   -0.181541
     4  C   -0.181569
     5  C    0.094589
     6  C    0.089216
     7  C   -0.173682
     8  C   -0.133617
     9  C   -0.126762
    10  C   -0.133622
    11  C   -0.173681
    12  C   -0.181567
    13  C   -0.181547
    14  C   -0.181542
    15  C   -0.181571
    16  C    0.094592
    17  C    0.089219
    18  C   -0.173683
    19  C   -0.133618
    20  C   -0.126762
    21  C   -0.133620
    22  C   -0.173682
    23  C   -0.181568
    24  C   -0.181546
    25  H    0.133126
    26  H    0.133513
    27  H    0.132045
    28  H    0.130461
    29  H    0.130461
    30  H    0.132044
    31  H    0.133514
    32  H    0.133127
    33  H    0.133126
    34  H    0.133513
    35  H    0.132045
    36  H    0.130460
    37  H    0.130461
    38  H    0.132044
    39  H    0.133514
    40  H    0.133126
    41  H    0.129696
    42  H    0.129696
 Sum of Mulliken charges =  -0.00000
 Mulliken charges with hydrogens summed into heavy atoms:
               1
     1  C    0.095797
     2  C    0.095797
     3  C   -0.048415
     4  C   -0.048056
     5  C    0.094589
     6  C    0.089216
     7  C   -0.041637
     8  C   -0.003156
     9  C    0.002933
    10  C   -0.003161
    11  C   -0.041637
    12  C   -0.048054
    13  C   -0.048420
    14  C   -0.048416
    15  C   -0.048059
    16  C    0.094592
    17  C    0.089219
    18  C   -0.041637
    19  C   -0.003158
    20  C    0.002934
    21  C   -0.003159
    22  C   -0.041639
    23  C   -0.048055
    24  C   -0.048419
 Electronic spatial extent (au):  <R**2>=          15604.2416
 Charge=             -0.0000 electrons
 Dipole moment (field-independent basis, Debye):
    X=              0.0000    Y=             -0.0000    Z=              0.0002  Tot=              0.0002
 Quadrupole moment (field-independent basis, Debye-Ang):
   XX=           -119.1829   YY=           -123.8578   ZZ=           -144.6641
   XY=             -0.0007   XZ=              0.0004   YZ=              0.0000
 Traceless Quadrupole moment (field-independent basis, Debye-Ang):
   XX=             10.0521   YY=              5.3771   ZZ=            -15.4292
   XY=             -0.0007   XZ=              0.0004   YZ=              0.0000
 Octapole moment (field-independent basis, Debye-Ang**2):
  XXX=             -0.0009  YYY=             -0.0007  ZZZ=              0.0008  XYY=             -0.0006
  XXY=             -0.0018  XXZ=              0.0099  XZZ=              0.0007  YZZ=              0.0006
  YYZ=              0.0004  XYZ=             20.2204
 Hexadecapole moment (field-independent basis, Debye-Ang**3):
 XXXX=         -18235.2249 YYYY=           -997.5259 ZZZZ=           -267.6861 XXXY=             -0.0338
 XXXZ=              0.0364 YYYX=             -0.0097 YYYZ=              0.0000 ZZZX=              0.0009
 ZZZY=              0.0000 XXYY=          -3298.5133 XXZZ=          -3709.4455 YYZZ=           -217.8850
 XXYZ=              0.0042 YYXZ=             -0.0018 ZZXY=              0.0035
 N-N= 1.646373170207D+03 E-N=-5.434753721056D+03  KE= 9.163234096965D+02
 1\1\GINC-N095\FOpt\RB3LYP\6-31G(d)\C24H18\CCOLWELL\18-Apr-2019\0\\#n B
 3LYP/6-31G(d) opt\\geometry optimization\\0,1\C,-0.740264504,0.1472686
 276,0.0073538719\C,0.7422125632,0.1420614295,-0.0083830785\C,1.4849835
 322,0.5120031469,1.1257773188\C,2.8760647879,0.5069286941,1.110946244\
 C,3.591634384,0.1321146578,-0.038706984\C,5.075648152,0.1270011402,-0.
 0545637645\C,5.8096105811,-0.2713625634,1.0760235858\C,7.2034802104,-0
 .2756769752,1.061692648\C,7.896560283,0.1171591501,-0.0847877864\C,7.1
 818309887,0.5148256819,-1.2162149872\C,5.7879806637,0.5201795421,-1.20
 06891381\C,2.8491595448,-0.2375649364,-1.1728575324\C,1.4580804694,-0.
 2329468989,-1.1580795431\C,-1.4804251316,0.520307977,-1.1274970185\C,-
 2.8715091245,0.5249783374,-1.1126832156\C,-3.5896906157,0.1572855778,0
 .0376394313\C,-5.073705111,0.1625353674,0.0534419779\C,-5.8103781485,-
 0.2326742303,-1.0764864126\C,-7.2042447451,-0.2272166752,-1.0622363211
 \C,-7.8946220692,0.1724811963,0.0835035754\C,-7.1771861714,0.567176741
 2,1.214258243\C,-5.78333116,0.562760505,1.198808907\C,-2.8498238389,-0
 .2155348097,1.1724668054\C,-1.4587460022,-0.2206578993,1.1577101707\H,
 0.9651279176,0.8430587526,2.0205125147\H,3.417605531,0.8335850451,1.99
 43824158\H,5.2809837298,-0.6056664674,1.9644295718\H,7.7490670913,-0.5
 95629027,1.945672511\H,7.7105654583,0.8309326451,-2.1117427813\H,5.242
 7718863,0.8580599173,-2.077651255\H,3.369509318,-0.5678709283,-2.06760
 33913\H,0.9169883733,-0.5602683194,-2.0415261446\H,-0.9582592742,0.846
 0630836,-2.0228328053\H,-3.4107435834,0.8537790801,-1.9967350969\H,-5.
 2840594344,-0.5722253541,-1.9642733848\H,-7.752013422,-0.5448976226,-1
 .9456856704\H,-7.7037467282,0.8885840037,2.1091803277\H,-5.2358266786,
 0.8984215529,2.0751913374\H,-3.3724669638,-0.5406094336,2.0677908386\H
 ,-0.9199602206,-0.550166919,2.0417520492\H,8.9831335805,0.1133243212,-
 0.0964418787\H,-8.9811961195,0.176274886,0.0950908449\\Version=EM64L-G
 09RevE.01\State=1-A\HF=-925.4215225\RMSD=3.738e-09\RMSF=3.791e-06\Dipo
 le=0.000002,-0.0000795,-0.0000195\Quadrupole=7.4728258,-11.4709574,3.9
 981316,-0.0664956,-0.0375,0.0140582\PG=C01 [X(C24H18)]\\@


 The earth never tires,
 The earth is rude, silent, incomprehensible at first,
 Nature is rude and incomprehensible at first,
 Be not discouraged, keep on,
 There are divine things well envelop'd,
 I swear to you there are divine things more beautiful than words can tell.
                                 -- Walt Whitman
 Job cpu time:       0 days  0 hours 51 minutes  9.3 seconds.
 File lengths (MBytes):  RWF=     99 Int=      0 D2E=      0 Chk=     12 Scr=      1
 Normal termination of Gaussian 09 at Thu Apr 18 13:01:49 2019.
