 Entering Gaussian System, Link 0=g09
 Initial command:
 /packages/gaussian/g09e01/l1.exe "/tmp/Gau-132861.inp" -scrdir="/tmp/"
 Entering Link 1 = /packages/gaussian/g09e01/l1.exe PID=    132862.
  
 Copyright (c) 1988,1990,1992,1993,1995,1998,2003,2009,2015,
            Gaussian, Inc.  All Rights Reserved.
  
 This is part of the Gaussian(R) 09 program.  It is based on
 the Gaussian(R) 03 system (copyright 2003, Gaussian, Inc.),
 the Gaussian(R) 98 system (copyright 1998, Gaussian, Inc.),
 the Gaussian(R) 94 system (copyright 1995, Gaussian, Inc.),
 the Gaussian 92(TM) system (copyright 1992, Gaussian, Inc.),
 the Gaussian 90(TM) system (copyright 1990, Gaussian, Inc.),
 the Gaussian 88(TM) system (copyright 1988, Gaussian, Inc.),
 the Gaussian 86(TM) system (copyright 1986, Carnegie Mellon
 University), and the Gaussian 82(TM) system (copyright 1983,
 Carnegie Mellon University). Gaussian is a federally registered
 trademark of Gaussian, Inc.
  
 This software contains proprietary and confidential information,
 including trade secrets, belonging to Gaussian, Inc.
  
 This software is provided under written license and may be
 used, copied, transmitted, or stored only in accord with that
 written license.
  
 The following legend is applicable only to US Government
 contracts under FAR:
  
                    RESTRICTED RIGHTS LEGEND
  
 Use, reproduction and disclosure by the US Government is
 subject to restrictions as set forth in subparagraphs (a)
 and (c) of the Commercial Computer Software - Restricted
 Rights clause in FAR 52.227-19.
  
 Gaussian, Inc.
 340 Quinnipiac St., Bldg. 40, Wallingford CT 06492
  
  
 ---------------------------------------------------------------
 Warning -- This program may not be used in any manner that
 competes with the business of Gaussian, Inc. or will provide
 assistance to any competitor of Gaussian, Inc.  The licensee
 of this program is prohibited from giving any competitor of
 Gaussian, Inc. access to this program.  By using this program,
 the user acknowledges that Gaussian, Inc. is engaged in the
 business of creating and licensing software in the field of
 computational chemistry and represents and warrants to the
 licensee that it is not a competitor of Gaussian, Inc. and that
 it will not use this program in any manner prohibited above.
 ---------------------------------------------------------------
  

 Cite this work as:
 Gaussian 09, Revision E.01,
 M. J. Frisch, G. W. Trucks, H. B. Schlegel, G. E. Scuseria, 
 M. A. Robb, J. R. Cheeseman, G. Scalmani, V. Barone, B. Mennucci, 
 G. A. Petersson, H. Nakatsuji, M. Caricato, X. Li, H. P. Hratchian, 
 A. F. Izmaylov, J. Bloino, G. Zheng, J. L. Sonnenberg, M. Hada, 
 M. Ehara, K. Toyota, R. Fukuda, J. Hasegawa, M. Ishida, T. Nakajima, 
 Y. Honda, O. Kitao, H. Nakai, T. Vreven, J. A. Montgomery, Jr., 
 J. E. Peralta, F. Ogliaro, M. Bearpark, J. J. Heyd, E. Brothers, 
 K. N. Kudin, V. N. Staroverov, T. Keith, R. Kobayashi, J. Normand, 
 K. Raghavachari, A. Rendell, J. C. Burant, S. S. Iyengar, J. Tomasi, 
 M. Cossi, N. Rega, J. M. Millam, M. Klene, J. E. Knox, J. B. Cross, 
 V. Bakken, C. Adamo, J. Jaramillo, R. Gomperts, R. E. Stratmann, 
 O. Yazyev, A. J. Austin, R. Cammi, C. Pomelli, J. W. Ochterski, 
 R. L. Martin, K. Morokuma, V. G. Zakrzewski, G. A. Voth, 
 P. Salvador, J. J. Dannenberg, S. Dapprich, A. D. Daniels, 
 O. Farkas, J. B. Foresman, J. V. Ortiz, J. Cioslowski, 
 and D. J. Fox, Gaussian, Inc., Wallingford CT, 2013.
 
 ******************************************
 Gaussian 09:  EM64L-G09RevE.01 30-Nov-2015
                18-Apr-2019 
 ******************************************
 ---------------------
 #n B3LYP/6-31G(d) opt
 ---------------------
 1/14=-1,18=20,19=15,26=3,38=1/1,3;
 2/9=110,12=2,17=6,18=5,40=1/2;
 3/5=1,6=6,7=1,11=2,16=1,25=1,30=1,71=1,74=-5/1,2,3;
 4//1;
 5/5=2,38=5/2;
 6/7=2,8=2,9=2,10=2,28=1/1;
 7//1,2,3,16;
 1/14=-1,18=20,19=15,26=3/3(2);
 2/9=110/2;
 99//99;
 2/9=110/2;
 3/5=1,6=6,7=1,11=2,16=1,25=1,30=1,71=1,74=-5/1,2,3;
 4/5=5,16=3,69=1/1;
 5/5=2,38=5/2;
 7//1,2,3,16;
 1/14=-1,18=20,19=15,26=3/3(-5);
 2/9=110/2;
 6/7=2,8=2,9=2,10=2,19=2,28=1/1;
 99/9=1/99;
 ---------------------
 geometry optimization
 ---------------------
 Symbolic Z-matrix:
 Charge =  0 Multiplicity = 1
 C                     3.50883   0.43812   0.07162 
 C                     3.05416  -0.97461  -0.10336 
 C                     2.40647  -1.29136  -1.31313 
 C                     1.28262  -2.10974  -1.33125 
 C                     0.75537  -2.64669  -0.14036 
 C                    -0.73088  -2.66201   0.01296 
 C                    -1.60115  -2.54384  -1.09234 
 C                    -2.7242   -1.72229  -1.03328 
 C                    -3.0324   -0.99022   0.13503 
 C                    -2.40211  -1.44988   1.30977 
 C                    -1.27346  -2.25937   1.24951 
 C                     1.63069  -2.64141   0.96823 
 C                     2.75688  -1.82036   0.98713 
 C                     3.13766   1.08493   1.2663 
 C                     2.70425   2.40628   1.26023 
 C                     2.62272   3.13794   0.05941 
 C                    -2.63193   3.12889  -0.15296 
 C                    -2.99171   2.57781   1.09472 
 C                    -3.43242   1.26289   1.20193 
 C                    -3.50511   0.42685   0.06734 
 C                    -3.53852   1.1063   -1.16936 
 C                    -3.12552   2.43081  -1.27609 
 C                     3.35788   2.61203  -1.02573 
 C                     3.79176   1.28742  -1.02012 
 H                     2.63598  -0.72675  -2.21135 
 H                     0.69836  -2.14161  -2.24509 
 H                    -1.32241  -2.96538  -2.0545 
 H                    -3.26589  -1.53484  -1.95598 
 H                    -2.65637  -1.0198    2.27268 
 H                    -0.70334  -2.39845   2.16273 
 H                     1.35651  -3.16295   1.88166 
 H                     3.31776  -1.72992   1.91413 
 H                     2.96873   0.5009    2.16558 
 H                     2.22147   2.78295   2.15631 
 H                    -2.75393   3.10553   2.01318 
 H                    -3.54074   0.84765   2.199 
 H                    -3.71865   0.55883  -2.0895 
 H                    -3.02849   2.85384  -2.27158 
 H                     3.46304   3.18756  -1.942 
 H                     4.21804   0.87679  -1.93217 
 H                     2.17078   4.12331   0.01903 
 H                    -2.18027   4.11124  -0.23928 
 

 GradGradGradGradGradGradGradGradGradGradGradGradGradGradGradGradGradGrad
 Berny optimization.
 Initialization pass.
                           ----------------------------
                           !    Initial Parameters    !
                           ! (Angstroms and Degrees)  !
 --------------------------                            --------------------------
 ! Name  Definition              Value          Derivative Info.                !
 --------------------------------------------------------------------------------
 ! R1    R(1,2)                  1.4944         estimate D2E/DX2                !
 ! R2    R(1,14)                 1.4083         estimate D2E/DX2                !
 ! R3    R(1,24)                 1.4118         estimate D2E/DX2                !
 ! R4    R(2,3)                  1.4083         estimate D2E/DX2                !
 ! R5    R(2,13)                 1.4117         estimate D2E/DX2                !
 ! R6    R(3,4)                  1.3904         estimate D2E/DX2                !
 ! R7    R(3,25)                 1.0855         estimate D2E/DX2                !
 ! R8    R(4,5)                  1.4087         estimate D2E/DX2                !
 ! R9    R(4,26)                 1.0851         estimate D2E/DX2                !
 ! R10   R(5,6)                  1.4942         estimate D2E/DX2                !
 ! R11   R(5,12)                 1.4125         estimate D2E/DX2                !
 ! R12   R(6,7)                  1.4117         estimate D2E/DX2                !
 ! R13   R(6,11)                 1.4091         estimate D2E/DX2                !
 ! R14   R(7,8)                  1.3927         estimate D2E/DX2                !
 ! R15   R(7,27)                 1.0868         estimate D2E/DX2                !
 ! R16   R(8,9)                  1.4128         estimate D2E/DX2                !
 ! R17   R(8,28)                 1.0862         estimate D2E/DX2                !
 ! R18   R(9,10)                 1.4102         estimate D2E/DX2                !
 ! R19   R(9,20)                 1.4954         estimate D2E/DX2                !
 ! R20   R(10,11)                1.3902         estimate D2E/DX2                !
 ! R21   R(10,29)                1.0848         estimate D2E/DX2                !
 ! R22   R(11,30)                1.0855         estimate D2E/DX2                !
 ! R23   R(12,13)                1.3938         estimate D2E/DX2                !
 ! R24   R(12,31)                1.087          estimate D2E/DX2                !
 ! R25   R(13,32)                1.0872         estimate D2E/DX2                !
 ! R26   R(14,15)                1.3906         estimate D2E/DX2                !
 ! R27   R(14,33)                1.0855         estimate D2E/DX2                !
 ! R28   R(15,16)                1.4085         estimate D2E/DX2                !
 ! R29   R(15,34)                1.0853         estimate D2E/DX2                !
 ! R30   R(16,23)                1.4123         estimate D2E/DX2                !
 ! R31   R(16,41)                1.0848         estimate D2E/DX2                !
 ! R32   R(17,18)                1.4106         estimate D2E/DX2                !
 ! R33   R(17,22)                1.4115         estimate D2E/DX2                !
 ! R34   R(17,42)                1.0846         estimate D2E/DX2                !
 ! R35   R(18,19)                1.3909         estimate D2E/DX2                !
 ! R36   R(18,35)                1.0856         estimate D2E/DX2                !
 ! R37   R(19,20)                1.4112         estimate D2E/DX2                !
 ! R38   R(19,36)                1.0855         estimate D2E/DX2                !
 ! R39   R(20,21)                1.4114         estimate D2E/DX2                !
 ! R40   R(21,22)                1.3915         estimate D2E/DX2                !
 ! R41   R(21,37)                1.0857         estimate D2E/DX2                !
 ! R42   R(22,38)                1.086          estimate D2E/DX2                !
 ! R43   R(23,24)                1.3939         estimate D2E/DX2                !
 ! R44   R(23,39)                1.0871         estimate D2E/DX2                !
 ! R45   R(24,40)                1.0873         estimate D2E/DX2                !
 ! A1    A(2,1,14)             116.9571         estimate D2E/DX2                !
 ! A2    A(2,1,24)             122.624          estimate D2E/DX2                !
 ! A3    A(14,1,24)            115.6266         estimate D2E/DX2                !
 ! A4    A(1,2,3)              116.945          estimate D2E/DX2                !
 ! A5    A(1,2,13)             122.6837         estimate D2E/DX2                !
 ! A6    A(3,2,13)             115.5929         estimate D2E/DX2                !
 ! A7    A(2,3,4)              121.0189         estimate D2E/DX2                !
 ! A8    A(2,3,25)             119.7755         estimate D2E/DX2                !
 ! A9    A(4,3,25)             117.7934         estimate D2E/DX2                !
 ! A10   A(3,4,5)              121.0555         estimate D2E/DX2                !
 ! A11   A(3,4,26)             117.612          estimate D2E/DX2                !
 ! A12   A(5,4,26)             119.948          estimate D2E/DX2                !
 ! A13   A(4,5,6)              117.5763         estimate D2E/DX2                !
 ! A14   A(4,5,12)             115.4746         estimate D2E/DX2                !
 ! A15   A(6,5,12)             122.4048         estimate D2E/DX2                !
 ! A16   A(5,6,7)              122.1388         estimate D2E/DX2                !
 ! A17   A(5,6,11)             118.0415         estimate D2E/DX2                !
 ! A18   A(7,6,11)             115.1996         estimate D2E/DX2                !
 ! A19   A(6,7,8)              120.882          estimate D2E/DX2                !
 ! A20   A(6,7,27)             120.1699         estimate D2E/DX2                !
 ! A21   A(8,7,27)             118.239          estimate D2E/DX2                !
 ! A22   A(7,8,9)              121.1078         estimate D2E/DX2                !
 ! A23   A(7,8,28)             117.8978         estimate D2E/DX2                !
 ! A24   A(9,8,28)             120.2819         estimate D2E/DX2                !
 ! A25   A(8,9,10)             114.9922         estimate D2E/DX2                !
 ! A26   A(8,9,20)             121.5056         estimate D2E/DX2                !
 ! A27   A(10,9,20)            119.2025         estimate D2E/DX2                !
 ! A28   A(9,10,11)            121.1014         estimate D2E/DX2                !
 ! A29   A(9,10,29)            120.3611         estimate D2E/DX2                !
 ! A30   A(11,10,29)           117.3613         estimate D2E/DX2                !
 ! A31   A(6,11,10)            121.1323         estimate D2E/DX2                !
 ! A32   A(6,11,30)            119.9617         estimate D2E/DX2                !
 ! A33   A(10,11,30)           117.6789         estimate D2E/DX2                !
 ! A34   A(5,12,13)            120.9001         estimate D2E/DX2                !
 ! A35   A(5,12,31)            120.0938         estimate D2E/DX2                !
 ! A36   A(13,12,31)           118.3622         estimate D2E/DX2                !
 ! A37   A(2,13,12)            120.8361         estimate D2E/DX2                !
 ! A38   A(2,13,32)            120.0102         estimate D2E/DX2                !
 ! A39   A(12,13,32)           118.5141         estimate D2E/DX2                !
 ! A40   A(1,14,15)            120.9864         estimate D2E/DX2                !
 ! A41   A(1,14,33)            119.7801         estimate D2E/DX2                !
 ! A42   A(15,14,33)           117.7968         estimate D2E/DX2                !
 ! A43   A(14,15,16)           121.0199         estimate D2E/DX2                !
 ! A44   A(14,15,34)           117.6975         estimate D2E/DX2                !
 ! A45   A(16,15,34)           119.8584         estimate D2E/DX2                !
 ! A46   A(15,16,23)           115.5619         estimate D2E/DX2                !
 ! A47   A(15,16,41)           121.8488         estimate D2E/DX2                !
 ! A48   A(23,16,41)           121.7695         estimate D2E/DX2                !
 ! A49   A(18,17,22)           114.9222         estimate D2E/DX2                !
 ! A50   A(18,17,42)           122.0336         estimate D2E/DX2                !
 ! A51   A(22,17,42)           122.0197         estimate D2E/DX2                !
 ! A52   A(17,18,19)           121.2182         estimate D2E/DX2                !
 ! A53   A(17,18,35)           120.1678         estimate D2E/DX2                !
 ! A54   A(19,18,35)           117.6267         estimate D2E/DX2                !
 ! A55   A(18,19,20)           120.9568         estimate D2E/DX2                !
 ! A56   A(18,19,36)           117.6485         estimate D2E/DX2                !
 ! A57   A(20,19,36)           120.4456         estimate D2E/DX2                !
 ! A58   A(9,20,19)            120.579          estimate D2E/DX2                !
 ! A59   A(9,20,21)            120.2201         estimate D2E/DX2                !
 ! A60   A(19,20,21)           114.8647         estimate D2E/DX2                !
 ! A61   A(20,21,22)           121.2238         estimate D2E/DX2                !
 ! A62   A(20,21,37)           120.2481         estimate D2E/DX2                !
 ! A63   A(22,21,37)           117.6589         estimate D2E/DX2                !
 ! A64   A(17,22,21)           120.8981         estimate D2E/DX2                !
 ! A65   A(17,22,38)           120.3643         estimate D2E/DX2                !
 ! A66   A(21,22,38)           117.8786         estimate D2E/DX2                !
 ! A67   A(16,23,24)           120.8518         estimate D2E/DX2                !
 ! A68   A(16,23,39)           120.0536         estimate D2E/DX2                !
 ! A69   A(24,23,39)           118.4491         estimate D2E/DX2                !
 ! A70   A(1,24,23)            120.8239         estimate D2E/DX2                !
 ! A71   A(1,24,40)            120.0027         estimate D2E/DX2                !
 ! A72   A(23,24,40)           118.5265         estimate D2E/DX2                !
 ! D1    D(14,1,2,3)           129.4953         estimate D2E/DX2                !
 ! D2    D(14,1,2,13)          -24.9094         estimate D2E/DX2                !
 ! D3    D(24,1,2,3)           -24.8839         estimate D2E/DX2                !
 ! D4    D(24,1,2,13)         -179.2886         estimate D2E/DX2                !
 ! D5    D(2,1,14,15)         -138.1884         estimate D2E/DX2                !
 ! D6    D(2,1,14,33)           27.8338         estimate D2E/DX2                !
 ! D7    D(24,1,14,15)          17.9879         estimate D2E/DX2                !
 ! D8    D(24,1,14,33)        -175.9898         estimate D2E/DX2                !
 ! D9    D(2,1,24,23)          136.7691         estimate D2E/DX2                !
 ! D10   D(2,1,24,40)          -33.8764         estimate D2E/DX2                !
 ! D11   D(14,1,24,23)         -17.9232         estimate D2E/DX2                !
 ! D12   D(14,1,24,40)         171.4313         estimate D2E/DX2                !
 ! D13   D(1,2,3,4)           -138.2997         estimate D2E/DX2                !
 ! D14   D(1,2,3,25)            27.8398         estimate D2E/DX2                !
 ! D15   D(13,2,3,4)            17.9241         estimate D2E/DX2                !
 ! D16   D(13,2,3,25)         -175.9364         estimate D2E/DX2                !
 ! D17   D(1,2,13,12)          136.8792         estimate D2E/DX2                !
 ! D18   D(1,2,13,32)          -33.8181         estimate D2E/DX2                !
 ! D19   D(3,2,13,12)          -17.843          estimate D2E/DX2                !
 ! D20   D(3,2,13,32)          171.4598         estimate D2E/DX2                !
 ! D21   D(2,3,4,5)              0.0725         estimate D2E/DX2                !
 ! D22   D(2,3,4,26)           166.632          estimate D2E/DX2                !
 ! D23   D(25,3,4,5)          -166.3331         estimate D2E/DX2                !
 ! D24   D(25,3,4,26)            0.2264         estimate D2E/DX2                !
 ! D25   D(3,4,5,6)            138.634          estimate D2E/DX2                !
 ! D26   D(3,4,5,12)           -18.0755         estimate D2E/DX2                !
 ! D27   D(26,4,5,6)           -27.6151         estimate D2E/DX2                !
 ! D28   D(26,4,5,12)          175.6753         estimate D2E/DX2                !
 ! D29   D(4,5,6,7)             19.0852         estimate D2E/DX2                !
 ! D30   D(4,5,6,11)          -135.6481         estimate D2E/DX2                !
 ! D31   D(12,5,6,7)           174.0746         estimate D2E/DX2                !
 ! D32   D(12,5,6,11)           19.3414         estimate D2E/DX2                !
 ! D33   D(4,5,12,13)           18.0909         estimate D2E/DX2                !
 ! D34   D(4,5,12,31)         -171.2571         estimate D2E/DX2                !
 ! D35   D(6,5,12,13)         -137.3826         estimate D2E/DX2                !
 ! D36   D(6,5,12,31)           33.2694         estimate D2E/DX2                !
 ! D37   D(5,6,7,8)           -136.5216         estimate D2E/DX2                !
 ! D38   D(5,6,7,27)            33.6601         estimate D2E/DX2                !
 ! D39   D(11,6,7,8)            18.8741         estimate D2E/DX2                !
 ! D40   D(11,6,7,27)         -170.9442         estimate D2E/DX2                !
 ! D41   D(5,6,11,10)          138.1695         estimate D2E/DX2                !
 ! D42   D(5,6,11,30)          -28.8814         estimate D2E/DX2                !
 ! D43   D(7,6,11,10)          -18.2872         estimate D2E/DX2                !
 ! D44   D(7,6,11,30)          174.6618         estimate D2E/DX2                !
 ! D45   D(6,7,8,9)             -0.447          estimate D2E/DX2                !
 ! D46   D(6,7,8,28)           169.9067         estimate D2E/DX2                !
 ! D47   D(27,7,8,9)          -170.8137         estimate D2E/DX2                !
 ! D48   D(27,7,8,28)           -0.46           estimate D2E/DX2                !
 ! D49   D(7,8,9,10)           -18.5611         estimate D2E/DX2                !
 ! D50   D(7,8,9,20)           137.9427         estimate D2E/DX2                !
 ! D51   D(28,8,9,10)          171.3134         estimate D2E/DX2                !
 ! D52   D(28,8,9,20)          -32.1828         estimate D2E/DX2                !
 ! D53   D(8,9,10,11)           19.1985         estimate D2E/DX2                !
 ! D54   D(8,9,10,29)         -173.5221         estimate D2E/DX2                !
 ! D55   D(20,9,10,11)        -137.8836         estimate D2E/DX2                !
 ! D56   D(20,9,10,29)          29.3957         estimate D2E/DX2                !
 ! D57   D(8,9,20,19)         -161.1788         estimate D2E/DX2                !
 ! D58   D(8,9,20,21)           -5.7554         estimate D2E/DX2                !
 ! D59   D(10,9,20,19)          -5.6334         estimate D2E/DX2                !
 ! D60   D(10,9,20,21)         149.7899         estimate D2E/DX2                !
 ! D61   D(9,10,11,6)           -0.8138         estimate D2E/DX2                !
 ! D62   D(9,10,11,30)         166.5227         estimate D2E/DX2                !
 ! D63   D(29,10,11,6)        -168.4609         estimate D2E/DX2                !
 ! D64   D(29,10,11,30)         -1.1244         estimate D2E/DX2                !
 ! D65   D(5,12,13,2)           -0.1641         estimate D2E/DX2                !
 ! D66   D(5,12,13,32)         170.6694         estimate D2E/DX2                !
 ! D67   D(31,12,13,2)        -170.9743         estimate D2E/DX2                !
 ! D68   D(31,12,13,32)         -0.1407         estimate D2E/DX2                !
 ! D69   D(1,14,15,16)           0.0236         estimate D2E/DX2                !
 ! D70   D(1,14,15,34)         166.3835         estimate D2E/DX2                !
 ! D71   D(33,14,15,16)       -166.2673         estimate D2E/DX2                !
 ! D72   D(33,14,15,34)          0.0926         estimate D2E/DX2                !
 ! D73   D(14,15,16,23)        -18.0472         estimate D2E/DX2                !
 ! D74   D(14,15,16,41)        172.1522         estimate D2E/DX2                !
 ! D75   D(34,15,16,23)        175.8841         estimate D2E/DX2                !
 ! D76   D(34,15,16,41)          6.0835         estimate D2E/DX2                !
 ! D77   D(15,16,23,24)         18.0477         estimate D2E/DX2                !
 ! D78   D(15,16,23,39)       -171.3037         estimate D2E/DX2                !
 ! D79   D(41,16,23,24)       -172.1429         estimate D2E/DX2                !
 ! D80   D(41,16,23,39)         -1.4942         estimate D2E/DX2                !
 ! D81   D(22,17,18,19)         18.5202         estimate D2E/DX2                !
 ! D82   D(22,17,18,35)       -173.1171         estimate D2E/DX2                !
 ! D83   D(42,17,18,19)       -172.8447         estimate D2E/DX2                !
 ! D84   D(42,17,18,35)         -4.482          estimate D2E/DX2                !
 ! D85   D(18,17,22,21)        -19.8853         estimate D2E/DX2                !
 ! D86   D(18,17,22,38)        170.9505         estimate D2E/DX2                !
 ! D87   D(42,17,22,21)        171.4779         estimate D2E/DX2                !
 ! D88   D(42,17,22,38)          2.3137         estimate D2E/DX2                !
 ! D89   D(17,18,19,20)          1.4473         estimate D2E/DX2                !
 ! D90   D(17,18,19,36)        170.3473         estimate D2E/DX2                !
 ! D91   D(35,18,19,20)       -167.2006         estimate D2E/DX2                !
 ! D92   D(35,18,19,36)          1.6993         estimate D2E/DX2                !
 ! D93   D(18,19,20,9)         136.7207         estimate D2E/DX2                !
 ! D94   D(18,19,20,21)        -19.9444         estimate D2E/DX2                !
 ! D95   D(36,19,20,9)         -31.8701         estimate D2E/DX2                !
 ! D96   D(36,19,20,21)        171.4648         estimate D2E/DX2                !
 ! D97   D(9,20,21,22)        -138.188          estimate D2E/DX2                !
 ! D98   D(9,20,21,37)          30.8893         estimate D2E/DX2                !
 ! D99   D(19,20,21,22)         18.5677         estimate D2E/DX2                !
 ! D100  D(19,20,21,37)       -172.355          estimate D2E/DX2                !
 ! D101  D(20,21,22,17)          1.3755         estimate D2E/DX2                !
 ! D102  D(20,21,22,38)        170.8016         estimate D2E/DX2                !
 ! D103  D(37,21,22,17)       -167.9747         estimate D2E/DX2                !
 ! D104  D(37,21,22,38)          1.4513         estimate D2E/DX2                !
 ! D105  D(16,23,24,1)          -0.0879         estimate D2E/DX2                !
 ! D106  D(16,23,24,40)        170.6929         estimate D2E/DX2                !
 ! D107  D(39,23,24,1)        -170.8834         estimate D2E/DX2                !
 ! D108  D(39,23,24,40)         -0.1026         estimate D2E/DX2                !
 --------------------------------------------------------------------------------
 Trust Radius=3.00D-01 FncErr=1.00D-07 GrdErr=1.00D-06
 Number of steps in this run=    235 maximum allowed number of steps=    252.
 GradGradGradGradGradGradGradGradGradGradGradGradGradGradGradGradGradGrad

                          Input orientation:                          
 ---------------------------------------------------------------------
 Center     Atomic      Atomic             Coordinates (Angstroms)
 Number     Number       Type             X           Y           Z
 ---------------------------------------------------------------------
      1          6           0        3.508833    0.438122    0.071619
      2          6           0        3.054161   -0.974608   -0.103360
      3          6           0        2.406473   -1.291356   -1.313130
      4          6           0        1.282623   -2.109740   -1.331247
      5          6           0        0.755370   -2.646687   -0.140356
      6          6           0       -0.730880   -2.662012    0.012962
      7          6           0       -1.601151   -2.543838   -1.092335
      8          6           0       -2.724203   -1.722289   -1.033284
      9          6           0       -3.032402   -0.990218    0.135029
     10          6           0       -2.402106   -1.449879    1.309768
     11          6           0       -1.273456   -2.259372    1.249510
     12          6           0        1.630694   -2.641408    0.968232
     13          6           0        2.756883   -1.820363    0.987130
     14          6           0        3.137657    1.084934    1.266297
     15          6           0        2.704248    2.406280    1.260226
     16          6           0        2.622724    3.137941    0.059409
     17          6           0       -2.631933    3.128890   -0.152963
     18          6           0       -2.991713    2.577813    1.094717
     19          6           0       -3.432419    1.262892    1.201930
     20          6           0       -3.505108    0.426853    0.067336
     21          6           0       -3.538516    1.106300   -1.169363
     22          6           0       -3.125522    2.430812   -1.276086
     23          6           0        3.357884    2.612033   -1.025726
     24          6           0        3.791763    1.287420   -1.020118
     25          1           0        2.635978   -0.726747   -2.211354
     26          1           0        0.698364   -2.141614   -2.245090
     27          1           0       -1.322411   -2.965375   -2.054499
     28          1           0       -3.265889   -1.534843   -1.955980
     29          1           0       -2.656367   -1.019797    2.272678
     30          1           0       -0.703342   -2.398450    2.162732
     31          1           0        1.356511   -3.162945    1.881660
     32          1           0        3.317758   -1.729921    1.914125
     33          1           0        2.968733    0.500901    2.165580
     34          1           0        2.221471    2.782952    2.156306
     35          1           0       -2.753932    3.105528    2.013177
     36          1           0       -3.540743    0.847648    2.199000
     37          1           0       -3.718646    0.558829   -2.089496
     38          1           0       -3.028490    2.853837   -2.271581
     39          1           0        3.463039    3.187560   -1.941999
     40          1           0        4.218038    0.876791   -1.932172
     41          1           0        2.170777    4.123310    0.019026
     42          1           0       -2.180269    4.111237   -0.239282
 ---------------------------------------------------------------------
                    Distance matrix (angstroms):
                    1          2          3          4          5
     1  C    0.000000
     2  C    1.494373   0.000000
     3  C    2.474636   1.408323   0.000000
     4  C    3.662737   2.436099   1.390367   0.000000
     5  C    4.140355   2.842826   2.436896   1.408733   0.000000
     6  C    5.252565   4.145769   3.671539   2.483163   1.494216
     7  C    6.029827   5.011236   4.204582   2.926034   2.543626
     8  C    6.688716   5.900278   5.156341   4.036528   3.709348
     9  C    6.695665   6.091250   5.636418   4.692839   4.143301
    10  C    6.327461   5.656294   5.479704   4.581223   3.674896
    11  C    5.615531   4.712658   4.587598   3.635414   2.489553
    12  C    3.716830   2.439834   2.762080   2.385671   1.412511
    13  C    2.550361   1.411681   2.386175   2.762617   2.441330
    14  C    1.408330   2.474802   3.582573   4.516008   4.645316
    15  C    2.435937   3.662268   4.514792   5.397331   5.593946
    16  C    2.841542   4.138320   4.642122   5.591775   6.081845
    17  C    6.708180   7.012334   6.802213   6.644949   6.695616
    18  C    6.919690   7.113907   7.064602   6.791789   6.546865
    19  C    7.080878   6.984691   6.851450   6.326393   5.884226
    20  C    7.013951   6.709489   6.309098   5.595776   5.257514
    21  C    7.186907   6.994993   6.411889   5.797629   5.794931
    22  C    7.057038   7.152668   6.667749   6.328617   6.490932
    23  C    2.439844   3.715777   4.027931   5.166739   5.933894
    24  C    1.411824   2.549759   2.941933   4.234770   5.046867
    25  H    2.707538   2.163319   1.085478   2.125753   3.392917
    26  H    4.463285   3.390972   2.123470   1.085119   2.165238
    27  H    6.280532   5.188880   4.154100   2.835737   2.843005
    28  H    7.341703   6.609773   5.713863   4.627068   4.550078
    29  H    6.706704   6.185283   6.210001   5.449027   4.484357
    30  H    5.491932   4.613169   4.793561   4.029305   2.737458
    31  H    4.569072   3.407512   3.848629   3.381933   2.171737
    32  H    2.851622   2.170306   3.382005   3.849477   3.409866
    33  H    2.163405   2.707861   3.953447   4.678270   4.485937
    34  H    3.391379   4.463039   5.354549   6.081356   6.074956
    35  H    7.078625   7.406834   7.551602   7.394455   7.073958
    36  H    7.374956   7.219019   7.230475   6.668857   6.011618
    37  H    7.544630   7.222678   6.445387   5.719169   5.838775
    38  H    7.352745   7.507118   6.902179   6.641312   7.008244
    39  H    3.408249   4.568525   4.644620   5.760956   6.679508
    40  H    2.170387   2.850762   2.892377   4.230501   5.255052
    41  H    3.920940   5.175337   5.581111   6.439174   6.918211
    42  H    6.778961   7.299558   7.167940   7.203094   7.368670
                    6          7          8          9         10
     6  C    0.000000
     7  C    1.411743   0.000000
     8  C    2.439477   1.392722   0.000000
     9  C    2.847244   2.443079   1.412753   0.000000
    10  C    2.438026   2.758328   2.380724   1.410168   0.000000
    11  C    1.409099   2.381710   2.757585   2.438588   1.390238
    12  C    2.547547   3.834094   4.880161   5.016485   4.218989
    13  C    3.717777   4.882627   5.842431   5.910249   5.182328
    14  C    5.529560   6.417744   6.894199   6.607242   6.092302
    15  C    6.248468   6.969553   7.195370   6.761022   6.399005
    16  C    6.699871   7.172883   7.307903   7.001990   6.918122
    17  C    6.097219   5.841641   4.931269   4.148538   4.812227
    18  C    5.808384   5.740049   4.805292   3.695065   4.076296
    19  C    4.910889   4.807118   3.795926   2.524836   2.903842
    20  C    4.152154   3.714148   2.537713   1.495367   2.506466
    21  C    4.845708   4.133137   2.946615   2.520511   3.737856
    22  C    5.773457   5.206209   4.179504   3.701805   4.719082
    23  C    6.753696   7.153983   7.468480   7.426932   7.425035
    24  C    6.092583   6.615684   7.177488   7.286373   7.161368
    25  H    4.475328   4.744184   5.577678   6.140477   6.188983
    26  H    2.722563   2.603536   3.654897   4.572668   4.767434
    27  H    2.171712   1.086807   2.133814   3.408716   3.844576
    28  H    3.401987   2.129626   1.086245   2.173350   3.379120
    29  H    3.392740   3.841809   3.380456   2.170673   1.084811
    30  H    2.166041   3.379743   3.841301   3.393997   2.124414
    31  H    2.846079   4.239776   5.217721   5.199425   4.169995
    32  H    4.568882   5.822107   6.722542   6.636029   5.758517
    33  H    5.322116   6.385005   6.898175   6.508471   5.777877
    34  H    6.554230   7.317158   7.411503   6.776840   6.325421
    35  H    6.431028   6.548927   5.708732   4.514435   4.622802
    36  H    4.999180   5.108530   4.209391   2.810007   2.714011
    37  H    4.870410   3.886471   2.703331   2.796246   4.162113
    38  H    6.397088   5.706384   4.750463   4.535256   5.633861
    39  H    7.458440   7.695250   7.950745   7.997414   8.153512
    40  H    6.387367   6.802131   7.467123   7.767105   7.729804
    41  H    7.379718   7.740376   7.696701   7.296211   7.323777
    42  H    6.931180   6.734471   5.912388   5.185661   5.777091
                   11         12         13         14         15
    11  C    0.000000
    12  C    2.942644   0.000000
    13  C    4.062660   1.393834   0.000000
    14  C    5.535574   4.030559   2.943412   0.000000
    15  C    6.131113   5.168843   4.235784   1.390624   0.000000
    16  C    6.762215   5.933882   5.046132   2.436508   1.408522
    17  C    5.731122   7.261088   7.405016   6.283329   5.567234
    18  C    5.135633   6.973013   7.238914   6.310888   5.700946
    19  C    4.131553   6.397913   6.918097   6.572801   6.242549
    20  C    3.686951   6.049984   6.716289   6.782102   6.625498
    21  C    4.723261   6.733154   7.269654   7.106629   6.823852
    22  C    5.639735   7.306570   7.602455   6.892206   6.357649
    23  C    7.096238   5.878579   4.904990   2.762951   2.386452
    24  C    6.586910   4.905043   3.841658   2.386744   2.763061
    25  H    5.441525   3.845295   3.382442   3.953217   4.676792
    26  H    4.014246   3.382968   3.845510   5.356361   6.082282
    27  H    3.378951   4.238241   5.215669   6.879309   7.487060
    28  H    3.843162   5.809649   6.709486   7.632280   7.843403
    29  H    2.120345   4.765511   5.621104   6.246072   6.441992
    30  H    1.085517   2.633170   3.699916   5.262208   5.959162
    31  H    2.851804   1.086981   2.136294   4.647110   5.763579
    32  H    4.669184   2.138155   1.087235   2.894050   4.232273
    33  H    5.143390   3.619129   2.611875   1.085514   2.126050
    34  H    6.201760   5.584283   4.779555   2.124801   1.085318
    35  H    5.617575   7.303706   7.462322   6.273073   5.554063
    36  H    3.961779   6.358621   6.946006   6.747390   6.504655
    37  H    5.007012   6.943101   7.553718   7.651603   7.475780
    38  H    6.451599   7.899500   8.120215   7.325774   6.748204
    39  H    7.892350   6.767851   5.844463   3.849685   3.382367
    40  H    7.079204   5.242558   4.234612   3.382418   3.849974
    41  H    7.356321   6.852306   6.050454   3.423780   2.184802
    42  H    6.604807   7.847276   7.814310   6.301239   5.386456
                   16         17         18         19         20
    16  C    0.000000
    17  C    5.258955   0.000000
    18  C    5.736507   1.410614   0.000000
    19  C    6.440956   2.440996   1.390947   0.000000
    20  C    6.700775   2.848152   2.438384   1.411222   0.000000
    21  C    6.602903   2.438408   2.755068   2.378825   1.411449
    22  C    5.943560   1.411506   2.379122   2.756590   2.442278
    23  C    1.412288   6.075094   6.694388   7.272609   7.284947
    24  C    2.440586   6.738460   7.221716   7.558234   7.427480
    25  H    4.482450   6.844983   7.315814   7.241175   6.651027
    26  H    6.073514   6.576176   6.858861   6.366787   5.441830
    27  H    7.568564   6.516959   6.590225   5.738877   4.557802
    28  H    7.782832   5.040156   5.127949   4.222256   2.828301
    29  H    7.074896   4.805823   3.800375   2.638073   2.770684
    30  H    6.792519   6.295506   5.580367   4.666522   4.496989
    31  H    6.680199   7.722342   7.244490   6.556212   6.309815
    32  H    5.255390   7.954855   7.683582   7.418156   7.390115
    33  H    3.392589   6.606771   6.402127   6.517975   6.805786
    34  H    2.164255   5.385901   5.324128   5.931938   6.535190
    35  H    5.720725   2.169699   1.085630   2.124564   3.394976
    36  H    6.914595   3.400254   2.124699   1.085500   2.173092
    37  H    7.175137   3.396516   3.839784   3.378034   2.171391
    38  H    6.119677   2.172891   3.377796   3.841815   3.404108
    39  H    2.171227   6.352383   7.159417   7.818950   7.759768
    40  H    3.409431   7.426953   8.002252   8.276543   7.990461
    41  H    1.084822   4.907594   5.495177   6.401333   6.773610
    42  H    4.909711   1.084646   2.188466   3.429000   3.927327
                   21         22         23         24         25
    21  C    0.000000
    22  C    1.391505   0.000000
    23  C    7.060326   6.490768   0.000000
    24  C    7.334035   7.015818   1.393873   0.000000
    25  H    6.524583   6.636248   3.615842   2.609933   0.000000
    26  H    5.445850   6.038887   5.581850   4.777860   2.399445
    27  H    4.719441   5.742471   7.353300   6.731343   4.550264
    28  H    2.769247   4.025963   7.869963   7.658424   5.962405
    29  H    4.140788   4.971975   7.761499   7.598956   6.942718
    30  H    5.605742   6.404233   7.194773   6.627378   5.751372
    31  H    7.176105   7.832630   6.768217   5.844358   4.932024
    32  H    8.034957   8.306925   5.243749   4.235423   4.300088
    33  H    7.337073   7.260135   3.846135   3.382996   4.558004
    34  H    6.859205   6.363619   3.383190   3.846050   5.618386
    35  H    3.839407   3.378250   6.843447   7.439927   7.847555
    36  H    3.378280   3.841229   7.816839   8.020085   7.751247
    37  H    1.085733   2.125500   7.444765   7.621067   6.484505
    38  H    2.128120   1.085991   6.511252   7.108845   6.701523
    39  H    7.345092   6.665226   1.087127   2.137395   4.009786
    40  H    7.797351   7.534806   2.138358   1.087276   2.269844
    41  H    6.565870   5.708997   2.187393   3.427782   5.358550
    42  H    3.426300   2.189131   5.791135   6.651978   7.105730
                   26         27         28         29         30
    26  H    0.000000
    27  H    2.190534   0.000000
    28  H    4.020828   2.415209   0.000000
    29  H    5.737850   4.928405   4.303294   0.000000
    30  H    4.632455   4.299964   4.927094   2.393132   0.000000
    31  H    4.301900   4.765397   6.224530   4.566089   2.215050
    32  H    4.932523   6.229566   7.639383   6.026857   4.083868
    33  H    5.620629   6.945362   7.746097   5.828014   4.678716
    34  H    6.778163   7.958218   8.103417   6.186093   5.949916
    35  H    7.588391   7.446550   6.127752   4.134630   5.875463
    36  H    6.830494   6.128001   4.797465   2.067583   4.311532
    37  H    5.179438   4.261828   2.146224   4.759103   5.993246
    38  H    6.232549   6.068036   4.406413   5.982792   7.256443
    39  H    6.011272   7.795627   8.220691   8.538881   8.087710
    40  H    4.647235   6.743425   7.862933   8.278602   7.191344
    41  H    6.822279   8.170148   8.091519   7.404851   7.442405
    42  H    7.169933   7.355907   6.000320   5.732724   7.094153
                   31         32         33         34         35
    31  H    0.000000
    32  H    2.429218   0.000000
    33  H    4.012934   2.271919   0.000000
    34  H    6.014755   4.650432   2.401300   0.000000
    35  H    7.497119   7.762525   6.289372   4.987903   0.000000
    36  H    6.337875   7.332397   6.518790   6.078679   2.398254
    37  H    7.441700   8.412986   7.926542   7.632729   4.924254
    38  H    8.525216   8.877265   7.822493   6.868282   4.300916
    39  H    7.706279   6.250793   4.933019   4.301314   7.368913
    40  H    6.249249   4.732806   4.300422   4.933091   8.315132
    41  H    7.564519   6.258377   4.285589   2.523310   5.409739
    42  H    8.361874   8.305696   6.732764   5.184448   2.532610
                   36         37         38         39         40
    36  H    0.000000
    37  H    4.301891   0.000000
    38  H    4.926793   2.403442   0.000000
    39  H    8.466169   7.649090   6.508452   0.000000
    40  H    8.790115   7.944608   7.519048   2.431003   0.000000
    41  H    6.935684   7.199770   5.821582   2.528080   4.305617
    42  H    4.295011   4.290629   2.535897   5.966519   7.366536
                   41         42
    41  H    0.000000
    42  H    4.358723   0.000000
 Stoichiometry    C24H18
 Framework group  C1[X(C24H18)]
 Deg. of freedom   120
 Full point group                 C1      NOp   1
 Largest Abelian subgroup         C1      NOp   1
 Largest concise Abelian subgroup C1      NOp   1
                         Standard orientation:                         
 ---------------------------------------------------------------------
 Center     Atomic      Atomic             Coordinates (Angstroms)
 Number     Number       Type             X           Y           Z
 ---------------------------------------------------------------------
      1          6           0        3.508833    0.438122    0.071619
      2          6           0        3.054161   -0.974608   -0.103360
      3          6           0        2.406473   -1.291356   -1.313130
      4          6           0        1.282623   -2.109740   -1.331247
      5          6           0        0.755370   -2.646687   -0.140356
      6          6           0       -0.730880   -2.662012    0.012962
      7          6           0       -1.601151   -2.543838   -1.092335
      8          6           0       -2.724203   -1.722289   -1.033284
      9          6           0       -3.032402   -0.990218    0.135029
     10          6           0       -2.402106   -1.449879    1.309768
     11          6           0       -1.273456   -2.259372    1.249510
     12          6           0        1.630694   -2.641408    0.968232
     13          6           0        2.756883   -1.820363    0.987130
     14          6           0        3.137657    1.084934    1.266297
     15          6           0        2.704248    2.406280    1.260226
     16          6           0        2.622724    3.137941    0.059409
     17          6           0       -2.631933    3.128890   -0.152963
     18          6           0       -2.991713    2.577813    1.094717
     19          6           0       -3.432419    1.262892    1.201930
     20          6           0       -3.505108    0.426853    0.067336
     21          6           0       -3.538516    1.106300   -1.169363
     22          6           0       -3.125522    2.430812   -1.276086
     23          6           0        3.357884    2.612033   -1.025726
     24          6           0        3.791763    1.287420   -1.020118
     25          1           0        2.635978   -0.726747   -2.211354
     26          1           0        0.698364   -2.141614   -2.245090
     27          1           0       -1.322411   -2.965375   -2.054499
     28          1           0       -3.265889   -1.534843   -1.955980
     29          1           0       -2.656367   -1.019797    2.272678
     30          1           0       -0.703342   -2.398450    2.162732
     31          1           0        1.356511   -3.162945    1.881660
     32          1           0        3.317758   -1.729921    1.914125
     33          1           0        2.968733    0.500901    2.165580
     34          1           0        2.221471    2.782952    2.156306
     35          1           0       -2.753932    3.105528    2.013177
     36          1           0       -3.540743    0.847648    2.199000
     37          1           0       -3.718646    0.558829   -2.089496
     38          1           0       -3.028490    2.853837   -2.271581
     39          1           0        3.463039    3.187560   -1.941999
     40          1           0        4.218038    0.876791   -1.932172
     41          1           0        2.170777    4.123310    0.019026
     42          1           0       -2.180269    4.111237   -0.239282
 ---------------------------------------------------------------------
 Rotational constants (GHZ):      0.3078582      0.1929651      0.1406983
 Standard basis: 6-31G(d) (6D, 7F)
 There are   396 symmetry adapted cartesian basis functions of A   symmetry.
 There are   396 symmetry adapted basis functions of A   symmetry.
   396 basis functions,   744 primitive gaussians,   396 cartesian basis functions
    81 alpha electrons       81 beta electrons
       nuclear repulsion energy      1795.9935393354 Hartrees.
 NAtoms=   42 NActive=   42 NUniq=   42 SFac= 1.00D+00 NAtFMM=   60 NAOKFM=F Big=F
 Integral buffers will be    131072 words long.
 Raffenetti 2 integral format.
 Two-electron integral symmetry is turned on.
 One-electron integrals computed using PRISM.
 NBasis=   396 RedAO= T EigKep=  4.45D-04  NBF=   396
 NBsUse=   396 1.00D-06 EigRej= -1.00D+00 NBFU=   396
 ExpMin= 1.61D-01 ExpMax= 3.05D+03 ExpMxC= 4.57D+02 IAcc=1 IRadAn=         1 AccDes= 0.00D+00
 Harris functional with IExCor=  402 and IRadAn=       1 diagonalized for initial guess.
 HarFok:  IExCor=  402 AccDes= 0.00D+00 IRadAn=         1 IDoV= 1 UseB2=F ITyADJ=14
 ICtDFT=  3500011 ScaDFX=  1.000000  1.000000  1.000000  1.000000
 FoFCou: FMM=F IPFlag=           0 FMFlag=      100000 FMFlg1=           0
         NFxFlg=           0 DoJE=T BraDBF=F KetDBF=T FulRan=T
         wScrn=  0.000000 ICntrl=     500 IOpCl=  0 I1Cent=   200000004 NGrid=           0
         NMat0=    1 NMatS0=      1 NMatT0=    0 NMatD0=    1 NMtDS0=    0 NMtDT0=    0
 Petite list used in FoFCou.
 Requested convergence on RMS density matrix=1.00D-08 within 128 cycles.
 Requested convergence on MAX density matrix=1.00D-06.
 Requested convergence on             energy=1.00D-06.
 No special actions if energy rises.
 Integral accuracy reduced to 1.0D-05 until final iterations.
 Initial convergence to 1.0D-05 achieved.  Increase integral accuracy.
 SCF Done:  E(RB3LYP) =  -925.293076131     A.U. after   15 cycles
            NFock= 15  Conv=0.41D-08     -V/T= 2.0100

 **********************************************************************

            Population analysis using the SCF density.

 **********************************************************************

 Orbital symmetries:
       Occupied  (A) (A) (A) (A) (A) (A) (A) (A) (A) (A) (A) (A)
                 (A) (A) (A) (A) (A) (A) (A) (A) (A) (A) (A) (A)
                 (A) (A) (A) (A) (A) (A) (A) (A) (A) (A) (A) (A)
                 (A) (A) (A) (A) (A) (A) (A) (A) (A) (A) (A) (A)
                 (A) (A) (A) (A) (A) (A) (A) (A) (A) (A) (A) (A)
                 (A) (A) (A) (A) (A) (A) (A) (A) (A) (A) (A) (A)
                 (A) (A) (A) (A) (A) (A) (A) (A) (A)
       Virtual   (A) (A) (A) (A) (A) (A) (A) (A) (A) (A) (A) (A)
                 (A) (A) (A) (A) (A) (A) (A) (A) (A) (A) (A) (A)
                 (A) (A) (A) (A) (A) (A) (A) (A) (A) (A) (A) (A)
                 (A) (A) (A) (A) (A) (A) (A) (A) (A) (A) (A) (A)
                 (A) (A) (A) (A) (A) (A) (A) (A) (A) (A) (A) (A)
                 (A) (A) (A) (A) (A) (A) (A) (A) (A) (A) (A) (A)
                 (A) (A) (A) (A) (A) (A) (A) (A) (A) (A) (A) (A)
                 (A) (A) (A) (A) (A) (A) (A) (A) (A) (A) (A) (A)
                 (A) (A) (A) (A) (A) (A) (A) (A) (A) (A) (A) (A)
                 (A) (A) (A) (A) (A) (A) (A) (A) (A) (A) (A) (A)
                 (A) (A) (A) (A) (A) (A) (A) (A) (A) (A) (A) (A)
                 (A) (A) (A) (A) (A) (A) (A) (A) (A) (A) (A) (A)
                 (A) (A) (A) (A) (A) (A) (A) (A) (A) (A) (A) (A)
                 (A) (A) (A) (A) (A) (A) (A) (A) (A) (A) (A) (A)
                 (A) (A) (A) (A) (A) (A) (A) (A) (A) (A) (A) (A)
                 (A) (A) (A) (A) (A) (A) (A) (A) (A) (A) (A) (A)
                 (A) (A) (A) (A) (A) (A) (A) (A) (A) (A) (A) (A)
                 (A) (A) (A) (A) (A) (A) (A) (A) (A) (A) (A) (A)
                 (A) (A) (A) (A) (A) (A) (A) (A) (A) (A) (A) (A)
                 (A) (A) (A) (A) (A) (A) (A) (A) (A) (A) (A) (A)
                 (A) (A) (A) (A) (A) (A) (A) (A) (A) (A) (A) (A)
                 (A) (A) (A) (A) (A) (A) (A) (A) (A) (A) (A) (A)
                 (A) (A) (A) (A) (A) (A) (A) (A) (A) (A) (A) (A)
                 (A) (A) (A) (A) (A) (A) (A) (A) (A) (A) (A) (A)
                 (A) (A) (A) (A) (A) (A) (A) (A) (A) (A) (A) (A)
                 (A) (A) (A) (A) (A) (A) (A) (A) (A) (A) (A) (A)
                 (A) (A) (A)
 The electronic state is 1-A.
 Alpha  occ. eigenvalues --  -10.20383 -10.20304 -10.20272 -10.20271 -10.20237
 Alpha  occ. eigenvalues --  -10.20189 -10.19163 -10.19155 -10.19093 -10.19075
 Alpha  occ. eigenvalues --  -10.19066 -10.19059 -10.19017 -10.19009 -10.19001
 Alpha  occ. eigenvalues --  -10.18980 -10.18967 -10.18960 -10.18937 -10.18896
 Alpha  occ. eigenvalues --  -10.18751 -10.18742 -10.18724 -10.18718  -0.87342
 Alpha  occ. eigenvalues --   -0.86359  -0.84936  -0.83643  -0.78828  -0.76089
 Alpha  occ. eigenvalues --   -0.75173  -0.74600  -0.73937  -0.73567  -0.72947
 Alpha  occ. eigenvalues --   -0.70012  -0.63473  -0.62396  -0.60780  -0.60751
 Alpha  occ. eigenvalues --   -0.58799  -0.58307  -0.57288  -0.56781  -0.53323
 Alpha  occ. eigenvalues --   -0.52148  -0.50202  -0.48263  -0.47991  -0.46772
 Alpha  occ. eigenvalues --   -0.44934  -0.44801  -0.44238  -0.43246  -0.42864
 Alpha  occ. eigenvalues --   -0.42576  -0.42015  -0.41944  -0.41662  -0.41205
 Alpha  occ. eigenvalues --   -0.40777  -0.39857  -0.39230  -0.37934  -0.37462
 Alpha  occ. eigenvalues --   -0.35680  -0.34367  -0.34171  -0.33789  -0.33120
 Alpha  occ. eigenvalues --   -0.32844  -0.32762  -0.31944  -0.28738  -0.25676
 Alpha  occ. eigenvalues --   -0.25477  -0.25009  -0.24380  -0.24011  -0.21849
 Alpha  occ. eigenvalues --   -0.18530
 Alpha virt. eigenvalues --   -0.05772  -0.02630  -0.01616  -0.00440   0.00800
 Alpha virt. eigenvalues --    0.01056   0.02235   0.02924   0.08397   0.08683
 Alpha virt. eigenvalues --    0.09024   0.11149   0.11178   0.11398   0.12461
 Alpha virt. eigenvalues --    0.13051   0.13657   0.14073   0.14131   0.14588
 Alpha virt. eigenvalues --    0.16382   0.16401   0.17698   0.17866   0.18968
 Alpha virt. eigenvalues --    0.20061   0.21290   0.22988   0.23799   0.25540
 Alpha virt. eigenvalues --    0.26159   0.26576   0.26830   0.27656   0.27820
 Alpha virt. eigenvalues --    0.28414   0.28733   0.30006   0.30190   0.31671
 Alpha virt. eigenvalues --    0.33714   0.34393   0.36102   0.36471   0.36724
 Alpha virt. eigenvalues --    0.38014   0.39010   0.39215   0.43289   0.45155
 Alpha virt. eigenvalues --    0.48362   0.49504   0.49738   0.50931   0.52152
 Alpha virt. eigenvalues --    0.52720   0.52992   0.53876   0.54281   0.54432
 Alpha virt. eigenvalues --    0.54773   0.55108   0.55681   0.56590   0.56643
 Alpha virt. eigenvalues --    0.57071   0.57251   0.57972   0.58020   0.58473
 Alpha virt. eigenvalues --    0.58750   0.59250   0.59451   0.59886   0.60057
 Alpha virt. eigenvalues --    0.60205   0.60618   0.60688   0.61072   0.61672
 Alpha virt. eigenvalues --    0.61880   0.62272   0.62511   0.62673   0.62745
 Alpha virt. eigenvalues --    0.62989   0.63784   0.64330   0.65307   0.65519
 Alpha virt. eigenvalues --    0.66281   0.66401   0.67451   0.68251   0.68569
 Alpha virt. eigenvalues --    0.69475   0.70310   0.70423   0.71276   0.73832
 Alpha virt. eigenvalues --    0.75097   0.77116   0.79327   0.81750   0.82036
 Alpha virt. eigenvalues --    0.82631   0.82718   0.83284   0.83402   0.83722
 Alpha virt. eigenvalues --    0.84327   0.84699   0.84987   0.86602   0.87023
 Alpha virt. eigenvalues --    0.88179   0.88890   0.89235   0.89867   0.90588
 Alpha virt. eigenvalues --    0.91435   0.91623   0.92180   0.92631   0.92904
 Alpha virt. eigenvalues --    0.92986   0.93472   0.93803   0.94421   0.94811
 Alpha virt. eigenvalues --    0.95990   0.96655   0.98844   0.99600   1.00608
 Alpha virt. eigenvalues --    1.00770   1.01838   1.02445   1.02772   1.03536
 Alpha virt. eigenvalues --    1.04994   1.06333   1.06803   1.07458   1.08049
 Alpha virt. eigenvalues --    1.10948   1.12641   1.13970   1.15220   1.15752
 Alpha virt. eigenvalues --    1.17771   1.18229   1.19206   1.20572   1.20878
 Alpha virt. eigenvalues --    1.22116   1.23672   1.25165   1.27549   1.28960
 Alpha virt. eigenvalues --    1.31636   1.33606   1.34687   1.35324   1.37393
 Alpha virt. eigenvalues --    1.37981   1.39281   1.40047   1.41338   1.42366
 Alpha virt. eigenvalues --    1.44197   1.45994   1.46927   1.48132   1.49556
 Alpha virt. eigenvalues --    1.49954   1.50208   1.51131   1.51793   1.52441
 Alpha virt. eigenvalues --    1.53006   1.53512   1.57442   1.59424   1.60274
 Alpha virt. eigenvalues --    1.61550   1.63018   1.63472   1.64963   1.65930
 Alpha virt. eigenvalues --    1.67638   1.73251   1.75375   1.78419   1.79784
 Alpha virt. eigenvalues --    1.80355   1.80910   1.82837   1.84394   1.85464
 Alpha virt. eigenvalues --    1.85816   1.85985   1.88094   1.88438   1.89657
 Alpha virt. eigenvalues --    1.90287   1.93843   1.98059   1.98480   1.99155
 Alpha virt. eigenvalues --    1.99466   1.99796   2.00456   2.00977   2.01192
 Alpha virt. eigenvalues --    2.01575   2.02957   2.03446   2.04040   2.06412
 Alpha virt. eigenvalues --    2.08280   2.09055   2.09869   2.10107   2.10479
 Alpha virt. eigenvalues --    2.11943   2.14724   2.16384   2.17264   2.17794
 Alpha virt. eigenvalues --    2.18849   2.20311   2.20705   2.21424   2.22053
 Alpha virt. eigenvalues --    2.23218   2.24241   2.24650   2.25796   2.28482
 Alpha virt. eigenvalues --    2.29647   2.29917   2.34159   2.35752   2.37275
 Alpha virt. eigenvalues --    2.37895   2.38159   2.39706   2.42789   2.46440
 Alpha virt. eigenvalues --    2.48773   2.49424   2.51828   2.53031   2.54663
 Alpha virt. eigenvalues --    2.56947   2.57405   2.57766   2.58713   2.59473
 Alpha virt. eigenvalues --    2.61032   2.62640   2.63082   2.64326   2.66328
 Alpha virt. eigenvalues --    2.66657   2.69926   2.70517   2.72289   2.73935
 Alpha virt. eigenvalues --    2.74142   2.75535   2.75965   2.76836   2.77257
 Alpha virt. eigenvalues --    2.77754   2.77860   2.80912   2.82703   2.86594
 Alpha virt. eigenvalues --    2.87130   2.89809   2.93349   2.96566   3.07082
 Alpha virt. eigenvalues --    3.15353   3.21639   3.23759   3.29996   3.37256
 Alpha virt. eigenvalues --    3.42985   4.06515   4.07378   4.08353   4.09669
 Alpha virt. eigenvalues --    4.10210   4.11176   4.12390   4.13109   4.13862
 Alpha virt. eigenvalues --    4.16099   4.22058   4.27227   4.28472   4.32672
 Alpha virt. eigenvalues --    4.34842   4.37420   4.39849   4.40590   4.43671
 Alpha virt. eigenvalues --    4.46838   4.57388   4.64029   4.71901   4.78561
          Condensed to atoms (all electrons):
               1          2          3          4          5          6
     1  C    4.769847   0.371752  -0.050266   0.005951   0.000511   0.000033
     2  C    0.371752   4.786099   0.537010  -0.034323  -0.036343   0.000648
     3  C   -0.050266   0.537010   4.988784   0.521449  -0.032871   0.005664
     4  C    0.005951  -0.034323   0.521449   4.997581   0.534238  -0.050753
     5  C    0.000511  -0.036343  -0.032871   0.534238   4.769162   0.376765
     6  C    0.000033   0.000648   0.005664  -0.050753   0.376765   4.771442
     7  C   -0.000001   0.000086   0.000339  -0.022152  -0.049100   0.502889
     8  C   -0.000000   0.000001  -0.000046   0.000884   0.003178  -0.029461
     9  C    0.000000  -0.000005  -0.000011   0.000226   0.000677  -0.036289
    10  C   -0.000000  -0.000010   0.000008   0.000158   0.005627  -0.033516
    11  C   -0.000007   0.000214   0.000143   0.001798  -0.050448   0.532888
    12  C    0.003084  -0.029072  -0.039300  -0.066013   0.502816  -0.049358
    13  C   -0.048118   0.499660  -0.062646  -0.039552  -0.029312   0.003351
    14  C    0.536546  -0.053883  -0.000620   0.000283   0.000293  -0.000010
    15  C   -0.027647   0.006686   0.000285  -0.000003  -0.000013  -0.000000
    16  C   -0.032141   0.000263   0.000144  -0.000009  -0.000003   0.000000
    17  C   -0.000000  -0.000000  -0.000000   0.000001   0.000000  -0.000004
    18  C    0.000000  -0.000000  -0.000000   0.000000  -0.000000  -0.000001
    19  C    0.000000   0.000000   0.000000  -0.000002  -0.000002   0.000126
    20  C    0.000000   0.000000  -0.000000  -0.000008   0.000029   0.000710
    21  C   -0.000000   0.000000   0.000000  -0.000009  -0.000006   0.000138
    22  C   -0.000000  -0.000000   0.000000   0.000000  -0.000000  -0.000005
    23  C   -0.022163   0.003588   0.000961  -0.000039   0.000000   0.000000
    24  C    0.500533  -0.050137  -0.022284   0.000394   0.000082  -0.000001
    25  H   -0.013432  -0.037427   0.348571  -0.041382   0.004365  -0.000157
    26  H   -0.000161   0.004477  -0.041870   0.348094  -0.036766  -0.014125
    27  H   -0.000000  -0.000000   0.000214   0.001348  -0.008093  -0.034785
    28  H    0.000000  -0.000000  -0.000001   0.000010  -0.000109   0.003603
    29  H   -0.000000  -0.000000   0.000000   0.000003  -0.000160   0.004358
    30  H   -0.000002   0.000006  -0.000022  -0.000193  -0.013601  -0.036255
    31  H   -0.000105   0.003548   0.000434   0.005697  -0.034731  -0.008030
    32  H   -0.006793  -0.036016   0.005645   0.000434   0.003544  -0.000110
    33  H   -0.039173  -0.014175  -0.000223  -0.000027   0.000028  -0.000003
    34  H    0.004584  -0.000174   0.000001   0.000000  -0.000000  -0.000000
    35  H    0.000000  -0.000000   0.000000   0.000000  -0.000000  -0.000000
    36  H   -0.000000   0.000000   0.000000  -0.000000  -0.000000  -0.000000
    37  H   -0.000000   0.000000   0.000000  -0.000000  -0.000001   0.000001
    38  H    0.000000  -0.000000   0.000000   0.000000  -0.000000  -0.000000
    39  H    0.004021  -0.000119   0.000012  -0.000001  -0.000000   0.000000
    40  H   -0.039266  -0.007269   0.000818   0.000191   0.000000  -0.000000
    41  H    0.000580   0.000006  -0.000003   0.000000   0.000000  -0.000000
    42  H   -0.000000   0.000000   0.000000  -0.000000  -0.000000   0.000000
               7          8          9         10         11         12
     1  C   -0.000001  -0.000000   0.000000  -0.000000  -0.000007   0.003084
     2  C    0.000086   0.000001  -0.000005  -0.000010   0.000214  -0.029072
     3  C    0.000339  -0.000046  -0.000011   0.000008   0.000143  -0.039300
     4  C   -0.022152   0.000884   0.000226   0.000158   0.001798  -0.066013
     5  C   -0.049100   0.003178   0.000677   0.005627  -0.050448   0.502816
     6  C    0.502889  -0.029461  -0.036289  -0.033516   0.532888  -0.049358
     7  C    5.037685   0.520261  -0.031704  -0.039465  -0.066335   0.007894
     8  C    0.520261   5.029249   0.513957  -0.072750  -0.038071  -0.000088
     9  C   -0.031704   0.513957   4.772050   0.525657  -0.032706   0.000086
    10  C   -0.039465  -0.072750   0.525657   5.014471   0.524461   0.000293
    11  C   -0.066335  -0.038071  -0.032706   0.524461   4.993421  -0.021252
    12  C    0.007894  -0.000088   0.000086   0.000293  -0.021252   5.043585
    13  C   -0.000087   0.000002   0.000001  -0.000042   0.000829   0.513113
    14  C   -0.000001   0.000000   0.000001   0.000001  -0.000018   0.000877
    15  C    0.000000   0.000000  -0.000000   0.000000   0.000001  -0.000034
    16  C    0.000000  -0.000000  -0.000000  -0.000000   0.000000   0.000001
    17  C   -0.000001   0.000042   0.000360   0.000055  -0.000003   0.000000
    18  C    0.000003  -0.000010   0.004793   0.000779  -0.000075   0.000000
    19  C   -0.000019   0.007270  -0.051179  -0.024496   0.000624  -0.000001
    20  C    0.004139  -0.048383   0.373099  -0.047858   0.004818  -0.000001
    21  C    0.000700  -0.022591  -0.052097   0.005362   0.000067  -0.000000
    22  C   -0.000057   0.000433   0.005691   0.000064   0.000006   0.000000
    23  C    0.000000  -0.000000  -0.000000   0.000000   0.000000   0.000002
    24  C   -0.000000   0.000000   0.000000   0.000000  -0.000000  -0.000110
    25  H   -0.000025  -0.000001  -0.000000   0.000000   0.000003   0.000392
    26  H    0.010402   0.000382   0.000003  -0.000022  -0.000187   0.006272
    27  H    0.349856  -0.041408   0.003664   0.000426   0.005723  -0.000219
    28  H   -0.041334   0.348157  -0.032914   0.005833   0.000458   0.000003
    29  H    0.000445   0.006082  -0.034605   0.348003  -0.042499  -0.000025
    30  H    0.006355   0.000381   0.004152  -0.042246   0.348400   0.010008
    31  H   -0.000215   0.000004  -0.000000   0.000192   0.001460   0.349111
    32  H    0.000003  -0.000000  -0.000000  -0.000001   0.000010  -0.040610
    33  H    0.000000  -0.000000   0.000000   0.000000   0.000001   0.000318
    34  H   -0.000000   0.000000   0.000000   0.000000  -0.000000  -0.000001
    35  H   -0.000000   0.000003  -0.000134   0.000008  -0.000001   0.000000
    36  H    0.000003  -0.000257  -0.011830   0.002731   0.000393   0.000000
    37  H    0.000312   0.005914  -0.012976  -0.000239  -0.000003   0.000000
    38  H   -0.000001  -0.000007  -0.000148   0.000003   0.000000   0.000000
    39  H    0.000000  -0.000000  -0.000000  -0.000000   0.000000  -0.000000
    40  H   -0.000000   0.000000   0.000000   0.000000  -0.000000   0.000005
    41  H   -0.000000   0.000000   0.000000   0.000000  -0.000000   0.000000
    42  H    0.000000  -0.000001   0.000005  -0.000002   0.000000  -0.000000
              13         14         15         16         17         18
     1  C   -0.048118   0.536546  -0.027647  -0.032141  -0.000000   0.000000
     2  C    0.499660  -0.053883   0.006686   0.000263  -0.000000  -0.000000
     3  C   -0.062646  -0.000620   0.000285   0.000144  -0.000000  -0.000000
     4  C   -0.039552   0.000283  -0.000003  -0.000009   0.000001   0.000000
     5  C   -0.029312   0.000293  -0.000013  -0.000003   0.000000  -0.000000
     6  C    0.003351  -0.000010  -0.000000   0.000000  -0.000004  -0.000001
     7  C   -0.000087  -0.000001   0.000000   0.000000  -0.000001   0.000003
     8  C    0.000002   0.000000   0.000000  -0.000000   0.000042  -0.000010
     9  C    0.000001   0.000001  -0.000000  -0.000000   0.000360   0.004793
    10  C   -0.000042   0.000001   0.000000  -0.000000   0.000055   0.000779
    11  C    0.000829  -0.000018   0.000001   0.000000  -0.000003  -0.000075
    12  C    0.513113   0.000877  -0.000034   0.000001   0.000000   0.000000
    13  C    5.040394  -0.021488   0.000279   0.000029  -0.000000   0.000000
    14  C   -0.021488   4.995840   0.523472  -0.036327   0.000001   0.000000
    15  C    0.000279   0.523472   4.882587   0.536102   0.000001  -0.000000
    16  C    0.000029  -0.036327   0.536102   4.876933  -0.000016  -0.000000
    17  C   -0.000000   0.000001   0.000001  -0.000016   4.881555   0.532998
    18  C    0.000000   0.000000  -0.000000  -0.000000   0.532998   4.879145
    19  C    0.000000  -0.000000  -0.000000   0.000000  -0.037496   0.525967
    20  C   -0.000000  -0.000000  -0.000000  -0.000000  -0.031489  -0.025058
    21  C    0.000000  -0.000000  -0.000000   0.000000  -0.036173  -0.045249
    22  C   -0.000000   0.000000   0.000000   0.000000   0.533841  -0.021368
    23  C   -0.000095  -0.043616  -0.021309   0.534124  -0.000000   0.000000
    24  C    0.007835  -0.062478  -0.047190  -0.036265   0.000000   0.000000
    25  H    0.006309  -0.000145  -0.000039   0.000013   0.000000  -0.000000
    26  H    0.000405   0.000001   0.000000  -0.000000  -0.000000   0.000000
    27  H    0.000005  -0.000000   0.000000   0.000000  -0.000000  -0.000000
    28  H   -0.000000   0.000000   0.000000  -0.000000  -0.000003   0.000001
    29  H   -0.000001  -0.000000   0.000000   0.000000  -0.000004   0.000379
    30  H    0.000293   0.000000  -0.000000   0.000000  -0.000000  -0.000002
    31  H   -0.040646   0.000011  -0.000001  -0.000000   0.000000   0.000000
    32  H    0.350479   0.001027   0.000147  -0.000004  -0.000000  -0.000000
    33  H    0.010400   0.349452  -0.044277   0.004862   0.000000  -0.000000
    34  H   -0.000021  -0.042091   0.359727  -0.044514   0.000001   0.000001
    35  H   -0.000000   0.000000   0.000000  -0.000000  -0.044557   0.360099
    36  H    0.000000  -0.000000  -0.000000   0.000000   0.004894  -0.045187
    37  H    0.000000  -0.000000  -0.000000   0.000000   0.004845   0.000351
    38  H   -0.000000   0.000000   0.000000   0.000000  -0.044704   0.004771
    39  H    0.000003   0.000550   0.004833  -0.044437  -0.000000  -0.000000
    40  H   -0.000170   0.005762   0.000288   0.004786   0.000000   0.000000
    41  H   -0.000000   0.005136  -0.042720   0.359823   0.000008  -0.000000
    42  H    0.000000  -0.000000  -0.000000   0.000008   0.359696  -0.042373
              19         20         21         22         23         24
     1  C    0.000000   0.000000  -0.000000  -0.000000  -0.022163   0.500533
     2  C    0.000000   0.000000   0.000000  -0.000000   0.003588  -0.050137
     3  C    0.000000  -0.000000   0.000000   0.000000   0.000961  -0.022284
     4  C   -0.000002  -0.000008  -0.000009   0.000000  -0.000039   0.000394
     5  C   -0.000002   0.000029  -0.000006  -0.000000   0.000000   0.000082
     6  C    0.000126   0.000710   0.000138  -0.000005   0.000000  -0.000001
     7  C   -0.000019   0.004139   0.000700  -0.000057   0.000000  -0.000000
     8  C    0.007270  -0.048383  -0.022591   0.000433  -0.000000   0.000000
     9  C   -0.051179   0.373099  -0.052097   0.005691  -0.000000   0.000000
    10  C   -0.024496  -0.047858   0.005362   0.000064   0.000000   0.000000
    11  C    0.000624   0.004818   0.000067   0.000006   0.000000  -0.000000
    12  C   -0.000001  -0.000001  -0.000000   0.000000   0.000002  -0.000110
    13  C    0.000000  -0.000000   0.000000  -0.000000  -0.000095   0.007835
    14  C   -0.000000  -0.000000  -0.000000   0.000000  -0.043616  -0.062478
    15  C   -0.000000  -0.000000  -0.000000   0.000000  -0.021309  -0.047190
    16  C    0.000000  -0.000000   0.000000   0.000000   0.534124  -0.036265
    17  C   -0.037496  -0.031489  -0.036173   0.533841  -0.000000   0.000000
    18  C    0.525967  -0.025058  -0.045249  -0.021368   0.000000   0.000000
    19  C    5.037944   0.515819  -0.072342  -0.045039   0.000000  -0.000000
    20  C    0.515819   4.752034   0.526244  -0.026037  -0.000000  -0.000000
    21  C   -0.072342   0.526244   5.021382   0.527061   0.000000  -0.000000
    22  C   -0.045039  -0.026037   0.527061   4.877565  -0.000000   0.000000
    23  C    0.000000  -0.000000   0.000000  -0.000000   4.882420   0.519599
    24  C   -0.000000  -0.000000  -0.000000   0.000000   0.519599   5.047304
    25  H   -0.000000  -0.000000  -0.000000   0.000000   0.000287   0.011083
    26  H    0.000000  -0.000002   0.000001  -0.000000  -0.000001  -0.000027
    27  H    0.000003  -0.000118   0.000003  -0.000001   0.000000  -0.000000
    28  H   -0.000238  -0.010390   0.003347   0.000238  -0.000000   0.000000
    29  H    0.006746  -0.013339  -0.000233  -0.000006  -0.000000  -0.000000
    30  H   -0.000014  -0.000133   0.000004   0.000000  -0.000000   0.000000
    31  H   -0.000000  -0.000000  -0.000000   0.000000  -0.000000   0.000003
    32  H    0.000000   0.000000   0.000000  -0.000000   0.000006  -0.000195
    33  H   -0.000000  -0.000000  -0.000000   0.000000   0.000327   0.006363
    34  H   -0.000000   0.000000  -0.000000   0.000000   0.004702   0.000647
    35  H   -0.041868   0.004180   0.000614   0.004764   0.000000  -0.000000
    36  H    0.348880  -0.035663   0.005927   0.000350   0.000000  -0.000000
    37  H    0.006119  -0.036372   0.349027  -0.045579   0.000000  -0.000000
    38  H    0.000592   0.004373  -0.042059   0.360178  -0.000000  -0.000000
    39  H    0.000000  -0.000000   0.000000   0.000000   0.359603  -0.041102
    40  H   -0.000000  -0.000000  -0.000000  -0.000000  -0.044509   0.351358
    41  H   -0.000000  -0.000000  -0.000000   0.000000  -0.042443   0.004931
    42  H    0.005012   0.000606   0.005015  -0.042453   0.000000  -0.000000
              25         26         27         28         29         30
     1  C   -0.013432  -0.000161  -0.000000   0.000000  -0.000000  -0.000002
     2  C   -0.037427   0.004477  -0.000000  -0.000000  -0.000000   0.000006
     3  C    0.348571  -0.041870   0.000214  -0.000001   0.000000  -0.000022
     4  C   -0.041382   0.348094   0.001348   0.000010   0.000003  -0.000193
     5  C    0.004365  -0.036766  -0.008093  -0.000109  -0.000160  -0.013601
     6  C   -0.000157  -0.014125  -0.034785   0.003603   0.004358  -0.036255
     7  C   -0.000025   0.010402   0.349856  -0.041334   0.000445   0.006355
     8  C   -0.000001   0.000382  -0.041408   0.348157   0.006082   0.000381
     9  C   -0.000000   0.000003   0.003664  -0.032914  -0.034605   0.004152
    10  C    0.000000  -0.000022   0.000426   0.005833   0.348003  -0.042246
    11  C    0.000003  -0.000187   0.005723   0.000458  -0.042499   0.348400
    12  C    0.000392   0.006272  -0.000219   0.000003  -0.000025   0.010008
    13  C    0.006309   0.000405   0.000005  -0.000000  -0.000001   0.000293
    14  C   -0.000145   0.000001  -0.000000   0.000000  -0.000000   0.000000
    15  C   -0.000039   0.000000   0.000000   0.000000   0.000000  -0.000000
    16  C    0.000013  -0.000000   0.000000  -0.000000   0.000000   0.000000
    17  C    0.000000  -0.000000  -0.000000  -0.000003  -0.000004  -0.000000
    18  C   -0.000000   0.000000  -0.000000   0.000001   0.000379  -0.000002
    19  C   -0.000000   0.000000   0.000003  -0.000238   0.006746  -0.000014
    20  C   -0.000000  -0.000002  -0.000118  -0.010390  -0.013339  -0.000133
    21  C   -0.000000   0.000001   0.000003   0.003347  -0.000233   0.000004
    22  C    0.000000  -0.000000  -0.000001   0.000238  -0.000006   0.000000
    23  C    0.000287  -0.000001   0.000000  -0.000000  -0.000000  -0.000000
    24  C    0.011083  -0.000027  -0.000000   0.000000  -0.000000   0.000000
    25  H    0.592893  -0.007249   0.000005   0.000000   0.000000   0.000000
    26  H   -0.007249   0.596441   0.003199   0.000016   0.000000  -0.000005
    27  H    0.000005   0.003199   0.591293  -0.006778   0.000014  -0.000200
    28  H    0.000000   0.000016  -0.006778   0.592707  -0.000201   0.000014
    29  H    0.000000   0.000000   0.000014  -0.000201   0.598036  -0.007293
    30  H    0.000000  -0.000005  -0.000200   0.000014  -0.007293   0.597239
    31  H    0.000014  -0.000198   0.000002   0.000000   0.000005   0.003194
    32  H   -0.000198   0.000014   0.000000   0.000000   0.000000   0.000010
    33  H   -0.000007   0.000000   0.000000   0.000000  -0.000000   0.000009
    34  H    0.000000   0.000000  -0.000000   0.000000   0.000000  -0.000000
    35  H    0.000000   0.000000   0.000000   0.000000   0.000020   0.000000
    36  H    0.000000  -0.000000   0.000000   0.000003   0.003622   0.000012
    37  H   -0.000000   0.000001   0.000012   0.003394   0.000001   0.000000
    38  H    0.000000  -0.000000   0.000000   0.000009   0.000000   0.000000
    39  H    0.000022   0.000000   0.000000  -0.000000   0.000000   0.000000
    40  H    0.002893   0.000004   0.000000   0.000000  -0.000000   0.000000
    41  H   -0.000000  -0.000000  -0.000000   0.000000  -0.000000   0.000000
    42  H   -0.000000   0.000000  -0.000000  -0.000000  -0.000000  -0.000000
              31         32         33         34         35         36
     1  C   -0.000105  -0.006793  -0.039173   0.004584   0.000000  -0.000000
     2  C    0.003548  -0.036016  -0.014175  -0.000174  -0.000000   0.000000
     3  C    0.000434   0.005645  -0.000223   0.000001   0.000000   0.000000
     4  C    0.005697   0.000434  -0.000027   0.000000   0.000000  -0.000000
     5  C   -0.034731   0.003544   0.000028  -0.000000  -0.000000  -0.000000
     6  C   -0.008030  -0.000110  -0.000003  -0.000000  -0.000000  -0.000000
     7  C   -0.000215   0.000003   0.000000  -0.000000  -0.000000   0.000003
     8  C    0.000004  -0.000000  -0.000000   0.000000   0.000003  -0.000257
     9  C   -0.000000  -0.000000   0.000000   0.000000  -0.000134  -0.011830
    10  C    0.000192  -0.000001   0.000000   0.000000   0.000008   0.002731
    11  C    0.001460   0.000010   0.000001  -0.000000  -0.000001   0.000393
    12  C    0.349111  -0.040610   0.000318  -0.000001   0.000000   0.000000
    13  C   -0.040646   0.350479   0.010400  -0.000021  -0.000000   0.000000
    14  C    0.000011   0.001027   0.349452  -0.042091   0.000000  -0.000000
    15  C   -0.000001   0.000147  -0.044277   0.359727   0.000000  -0.000000
    16  C   -0.000000  -0.000004   0.004862  -0.044514  -0.000000   0.000000
    17  C    0.000000  -0.000000   0.000000   0.000001  -0.044557   0.004894
    18  C    0.000000  -0.000000  -0.000000   0.000001   0.360099  -0.045187
    19  C   -0.000000   0.000000  -0.000000  -0.000000  -0.041868   0.348880
    20  C   -0.000000   0.000000  -0.000000   0.000000   0.004180  -0.035663
    21  C   -0.000000   0.000000  -0.000000  -0.000000   0.000614   0.005927
    22  C    0.000000  -0.000000   0.000000   0.000000   0.004764   0.000350
    23  C   -0.000000   0.000006   0.000327   0.004702   0.000000   0.000000
    24  C    0.000003  -0.000195   0.006363   0.000647  -0.000000  -0.000000
    25  H    0.000014  -0.000198  -0.000007   0.000000   0.000000   0.000000
    26  H   -0.000198   0.000014   0.000000   0.000000   0.000000  -0.000000
    27  H    0.000002   0.000000   0.000000  -0.000000   0.000000   0.000000
    28  H    0.000000   0.000000   0.000000   0.000000   0.000000   0.000003
    29  H    0.000005   0.000000  -0.000000   0.000000   0.000020   0.003622
    30  H    0.003194   0.000010   0.000009  -0.000000   0.000000   0.000012
    31  H    0.591338  -0.006639   0.000018   0.000000   0.000000   0.000000
    32  H   -0.006639   0.590746   0.002584   0.000005   0.000000   0.000000
    33  H    0.000018   0.002584   0.601634  -0.007373  -0.000000   0.000000
    34  H    0.000000   0.000005  -0.007373   0.600828   0.000001  -0.000000
    35  H    0.000000   0.000000  -0.000000   0.000001   0.601351  -0.007432
    36  H    0.000000   0.000000   0.000000  -0.000000  -0.007432   0.602322
    37  H   -0.000000   0.000000   0.000000  -0.000000   0.000014  -0.000196
    38  H    0.000000   0.000000   0.000000  -0.000000  -0.000209   0.000014
    39  H    0.000000   0.000000   0.000014  -0.000207  -0.000000   0.000000
    40  H    0.000000   0.000000  -0.000191   0.000015   0.000000  -0.000000
    41  H   -0.000000  -0.000000  -0.000155  -0.004762  -0.000000  -0.000000
    42  H   -0.000000   0.000000  -0.000000  -0.000000  -0.004654  -0.000151
              37         38         39         40         41         42
     1  C   -0.000000   0.000000   0.004021  -0.039266   0.000580  -0.000000
     2  C    0.000000  -0.000000  -0.000119  -0.007269   0.000006   0.000000
     3  C    0.000000   0.000000   0.000012   0.000818  -0.000003   0.000000
     4  C   -0.000000   0.000000  -0.000001   0.000191   0.000000  -0.000000
     5  C   -0.000001  -0.000000  -0.000000   0.000000   0.000000  -0.000000
     6  C    0.000001  -0.000000   0.000000  -0.000000  -0.000000   0.000000
     7  C    0.000312  -0.000001   0.000000  -0.000000  -0.000000   0.000000
     8  C    0.005914  -0.000007  -0.000000   0.000000   0.000000  -0.000001
     9  C   -0.012976  -0.000148  -0.000000   0.000000   0.000000   0.000005
    10  C   -0.000239   0.000003  -0.000000   0.000000   0.000000  -0.000002
    11  C   -0.000003   0.000000   0.000000  -0.000000  -0.000000   0.000000
    12  C    0.000000   0.000000  -0.000000   0.000005   0.000000  -0.000000
    13  C    0.000000  -0.000000   0.000003  -0.000170  -0.000000   0.000000
    14  C   -0.000000   0.000000   0.000550   0.005762   0.005136  -0.000000
    15  C   -0.000000   0.000000   0.004833   0.000288  -0.042720  -0.000000
    16  C    0.000000   0.000000  -0.044437   0.004786   0.359823   0.000008
    17  C    0.004845  -0.044704  -0.000000   0.000000   0.000008   0.359696
    18  C    0.000351   0.004771  -0.000000   0.000000  -0.000000  -0.042373
    19  C    0.006119   0.000592   0.000000  -0.000000  -0.000000   0.005012
    20  C   -0.036372   0.004373  -0.000000  -0.000000  -0.000000   0.000606
    21  C    0.349027  -0.042059   0.000000  -0.000000  -0.000000   0.005015
    22  C   -0.045579   0.360178   0.000000  -0.000000   0.000000  -0.042453
    23  C    0.000000  -0.000000   0.359603  -0.044509  -0.042443   0.000000
    24  C   -0.000000  -0.000000  -0.041102   0.351358   0.004931  -0.000000
    25  H   -0.000000   0.000000   0.000022   0.002893  -0.000000  -0.000000
    26  H    0.000001  -0.000000   0.000000   0.000004  -0.000000   0.000000
    27  H    0.000012   0.000000   0.000000   0.000000  -0.000000  -0.000000
    28  H    0.003394   0.000009  -0.000000   0.000000   0.000000  -0.000000
    29  H    0.000001   0.000000   0.000000  -0.000000  -0.000000  -0.000000
    30  H    0.000000   0.000000   0.000000   0.000000   0.000000  -0.000000
    31  H   -0.000000   0.000000   0.000000   0.000000  -0.000000  -0.000000
    32  H    0.000000   0.000000   0.000000   0.000000  -0.000000   0.000000
    33  H    0.000000   0.000000   0.000014  -0.000191  -0.000155  -0.000000
    34  H   -0.000000  -0.000000  -0.000207   0.000015  -0.004762  -0.000000
    35  H    0.000014  -0.000209  -0.000000   0.000000  -0.000000  -0.004654
    36  H   -0.000196   0.000014   0.000000  -0.000000  -0.000000  -0.000151
    37  H    0.604538  -0.007363   0.000000  -0.000000  -0.000000  -0.000155
    38  H   -0.007363   0.600683   0.000000   0.000000  -0.000000  -0.004604
    39  H    0.000000   0.000000   0.599709  -0.006999  -0.004698  -0.000000
    40  H   -0.000000   0.000000  -0.006999   0.599333  -0.000146  -0.000000
    41  H   -0.000000  -0.000000  -0.004698  -0.000146   0.592828   0.000014
    42  H   -0.000155  -0.004604  -0.000000  -0.000000   0.000014   0.592181
 Mulliken charges:
               1
     1  C    0.081833
     2  C    0.084914
     3  C   -0.160320
     4  C   -0.164275
     5  C    0.090245
     6  C    0.090247
     7  C   -0.190875
     8  C   -0.183127
     9  C    0.092176
    10  C   -0.173488
    11  C   -0.164114
    12  C   -0.191773
    13  C   -0.191205
    14  C   -0.158575
    15  C   -0.131175
    16  C   -0.123372
    17  C   -0.123849
    18  C   -0.129966
    19  C   -0.182404
    20  C    0.088800
    21  C   -0.174133
    22  C   -0.129647
    23  C   -0.131443
    24  C   -0.190345
    25  H    0.133211
    26  H    0.130897
    27  H    0.135836
    28  H    0.134173
[...]
    29  H   -0.000000   0.000000   0.000000  -0.000000  -0.000006  -0.000032
    30  H   -0.000015   0.000000  -0.000000   0.000000  -0.000000  -0.000000
    31  H   -0.039760  -0.000003  -0.000000  -0.000000   0.000000  -0.000000
    32  H    0.348464   0.005500  -0.000032  -0.000006  -0.000000   0.000000
    33  H    0.005640   0.350692  -0.044383   0.004751   0.000000   0.000000
    34  H   -0.000002  -0.038863   0.356950  -0.043082   0.000000   0.000000
    35  H    0.000000   0.000000   0.000000   0.000000  -0.043082   0.356949
    36  H   -0.000000   0.000000   0.000000   0.000000   0.004751  -0.044384
    37  H    0.000000   0.000000   0.000000   0.000000   0.004751   0.000304
    38  H   -0.000000   0.000000   0.000000   0.000000  -0.043082   0.004588
    39  H    0.000001   0.000838   0.004588  -0.043082   0.000000   0.000000
    40  H   -0.000006   0.006359   0.000304   0.004751   0.000000   0.000000
    41  H    0.000000   0.004778  -0.043150   0.358993   0.000000   0.000000
    42  H   -0.000000   0.000000   0.000000   0.000000   0.358993  -0.043150
              19         20         21         22         23         24
     1  C   -0.000000   0.000000  -0.000000   0.000000  -0.014023   0.522455
     2  C   -0.000000   0.000000  -0.000000  -0.000000   0.005983  -0.047479
     3  C    0.000000  -0.000000   0.000000  -0.000000   0.000346  -0.012844
     4  C    0.000000   0.000000  -0.000000   0.000000  -0.000002   0.000362
     5  C    0.000000   0.000003   0.000000  -0.000000  -0.000000   0.000003
     6  C    0.000003   0.000662   0.000003  -0.000000  -0.000000   0.000000
     7  C   -0.000178   0.006001   0.000362  -0.000002   0.000000  -0.000000
     8  C    0.005651  -0.048043  -0.012849   0.000346  -0.000000   0.000000
     9  C   -0.047477   0.343701  -0.047476   0.005983  -0.000000  -0.000000
    10  C   -0.012849  -0.048044   0.005651  -0.000173   0.000000   0.000000
    11  C    0.000362   0.006001  -0.000178   0.000002   0.000000   0.000000
    12  C   -0.000000   0.000000   0.000000   0.000000   0.000002  -0.000178
    13  C    0.000000  -0.000000   0.000000   0.000000  -0.000173   0.005648
    14  C    0.000000  -0.000000   0.000000   0.000000  -0.043740  -0.060448
    15  C    0.000000   0.000000   0.000000   0.000000  -0.026384  -0.043740
    16  C    0.000000   0.000000   0.000000   0.000000   0.548879  -0.037341
    17  C   -0.037341  -0.033260  -0.037341   0.548873   0.000000   0.000000
    18  C    0.514449  -0.014018  -0.043739  -0.026383   0.000000   0.000000
    19  C    5.003524   0.522443  -0.060460  -0.043739   0.000000   0.000000
    20  C    0.522443   4.762733   0.522438  -0.014020   0.000000  -0.000000
    21  C   -0.060460   0.522438   5.003522   0.514453   0.000000   0.000000
    22  C   -0.043739  -0.014020   0.514453   4.874014   0.000000   0.000000
    23  C    0.000000   0.000000   0.000000   0.000000   4.874016   0.514449
    24  C    0.000000  -0.000000   0.000000   0.000000   0.514449   5.003494
    25  H   -0.000000  -0.000000   0.000000   0.000000  -0.000032   0.005501
    26  H    0.000000  -0.000000   0.000000  -0.000000  -0.000000  -0.000003
    27  H    0.000001  -0.000172  -0.000003  -0.000000  -0.000000   0.000000
    28  H   -0.000000  -0.009432   0.005502  -0.000032   0.000000   0.000000
    29  H    0.005501  -0.009432  -0.000000  -0.000009  -0.000000  -0.000000
    30  H   -0.000003  -0.000172   0.000001  -0.000000   0.000000   0.000000
    31  H    0.000000  -0.000000   0.000000   0.000000  -0.000000   0.000001
    32  H    0.000000  -0.000000  -0.000000  -0.000000  -0.000009  -0.000000
    33  H    0.000000  -0.000000   0.000000   0.000000   0.000304   0.006359
    34  H    0.000000   0.000000   0.000000   0.000000   0.004588   0.000838
    35  H   -0.038863   0.003423   0.000838   0.004588   0.000000   0.000000
    36  H    0.350689  -0.042037   0.006359   0.000304   0.000000   0.000000
    37  H    0.006359  -0.042037   0.350689  -0.044383   0.000000   0.000000
    38  H    0.000838   0.003423  -0.038863   0.356949   0.000000   0.000000
    39  H    0.000000   0.000000   0.000000   0.000000   0.356949  -0.038863
    40  H    0.000000  -0.000000   0.000000   0.000000  -0.044383   0.350691
    41  H    0.000000   0.000000   0.000000   0.000000  -0.043150   0.004778
    42  H    0.004777   0.000611   0.004777  -0.043150   0.000000   0.000000
              25         26         27         28         29         30
     1  C   -0.009430  -0.000172  -0.000000  -0.000000  -0.000000  -0.000000
     2  C   -0.040732   0.003291  -0.000003  -0.000000  -0.000000  -0.000003
     3  C    0.348463  -0.039759  -0.000015  -0.000000  -0.000000  -0.000008
     4  C   -0.039631   0.348173   0.005674  -0.000003   0.000001  -0.000029
     5  C    0.003263  -0.040320  -0.009879  -0.000172  -0.000172  -0.009878
     6  C   -0.000172  -0.009879  -0.040319   0.003264   0.003263  -0.040321
     7  C   -0.000003   0.005674   0.348173  -0.039632   0.000560   0.006255
     8  C   -0.000000  -0.000015  -0.039760   0.348461   0.006236   0.000554
     9  C   -0.000000  -0.000003   0.003291  -0.040730  -0.040730   0.003291
    10  C   -0.000000  -0.000008   0.000554   0.006236   0.348461  -0.039759
    11  C    0.000001  -0.000029   0.006255   0.000560  -0.039632   0.348174
    12  C    0.000560   0.006255  -0.000029   0.000001  -0.000003   0.005674
    13  C    0.006236   0.000554  -0.000008  -0.000000  -0.000000  -0.000015
    14  C   -0.000000   0.000001   0.000000  -0.000000   0.000000   0.000000
    15  C   -0.000009  -0.000000   0.000000  -0.000000   0.000000  -0.000000
    16  C   -0.000006  -0.000000   0.000000  -0.000000  -0.000000   0.000000
    17  C   -0.000000   0.000000  -0.000000  -0.000006  -0.000006  -0.000000
    18  C   -0.000000   0.000000  -0.000000  -0.000009  -0.000032  -0.000000
    19  C   -0.000000   0.000000   0.000001  -0.000000   0.005501  -0.000003
    20  C   -0.000000  -0.000000  -0.000172  -0.009432  -0.009432  -0.000172
    21  C    0.000000   0.000000  -0.000003   0.005502  -0.000000   0.000001
    22  C    0.000000  -0.000000  -0.000000  -0.000032  -0.000009  -0.000000
    23  C   -0.000032  -0.000000  -0.000000   0.000000  -0.000000   0.000000
    24  C    0.005501  -0.000003   0.000000   0.000000  -0.000000   0.000000
    25  H    0.595231  -0.005339   0.000003   0.000000   0.000000   0.000000
    26  H   -0.005339   0.595768   0.002836   0.000003   0.000000  -0.000001
    27  H    0.000003   0.002836   0.595771  -0.005339   0.000019  -0.000181
    28  H    0.000000   0.000003  -0.005339   0.595234  -0.000182   0.000019
    29  H    0.000000   0.000000   0.000019  -0.000182   0.595234  -0.005339
    30  H    0.000000  -0.000001  -0.000181   0.000019  -0.005339   0.595769
    31  H    0.000019  -0.000181  -0.000001   0.000000   0.000003   0.002836
    32  H   -0.000182   0.000019   0.000000   0.000000   0.000000   0.000003
    33  H    0.000000   0.000000   0.000000  -0.000000   0.000000   0.000000
    34  H    0.000000   0.000000  -0.000000   0.000000  -0.000000   0.000000
    35  H    0.000000  -0.000000   0.000000   0.000000   0.000005   0.000000
    36  H   -0.000000   0.000000   0.000000   0.000000   0.002739   0.000004
    37  H    0.000000   0.000000   0.000004   0.002739   0.000000   0.000000
    38  H   -0.000000   0.000000   0.000000   0.000005   0.000000   0.000000
    39  H    0.000005   0.000000   0.000000  -0.000000   0.000000  -0.000000
    40  H    0.002738   0.000004   0.000000   0.000000  -0.000000   0.000000
    41  H   -0.000000  -0.000000   0.000000   0.000000   0.000000   0.000000
    42  H    0.000000   0.000000  -0.000000  -0.000000  -0.000000  -0.000000
              31         32         33         34         35         36
     1  C   -0.000172  -0.009429  -0.042040   0.003423   0.000000  -0.000000
     2  C    0.003291  -0.040732  -0.010017  -0.000180  -0.000000   0.000000
     3  C    0.000554   0.006236  -0.000006   0.000001  -0.000000   0.000000
     4  C    0.006255   0.000560  -0.000008  -0.000000  -0.000000   0.000000
     5  C   -0.040320   0.003264  -0.000004  -0.000000  -0.000000  -0.000000
     6  C   -0.009878  -0.000172  -0.000000  -0.000000  -0.000000  -0.000004
     7  C   -0.000029   0.000001   0.000000  -0.000000  -0.000000  -0.000008
     8  C   -0.000008  -0.000000   0.000000  -0.000000   0.000001  -0.000007
     9  C   -0.000003  -0.000000   0.000000  -0.000000  -0.000180  -0.010021
    10  C   -0.000015  -0.000000  -0.000000   0.000000  -0.000002   0.005641
    11  C    0.005674  -0.000003   0.000000   0.000000  -0.000000  -0.000021
    12  C    0.348174  -0.039632  -0.000021  -0.000000   0.000000   0.000000
    13  C   -0.039760   0.348464   0.005640  -0.000002   0.000000  -0.000000
    14  C   -0.000003   0.005500   0.350692  -0.038863   0.000000   0.000000
    15  C   -0.000000  -0.000032  -0.044383   0.356950   0.000000   0.000000
    16  C   -0.000000  -0.000006   0.004751  -0.043082   0.000000   0.000000
    17  C    0.000000  -0.000000   0.000000   0.000000  -0.043082   0.004751
    18  C   -0.000000   0.000000   0.000000   0.000000   0.356949  -0.044384
    19  C    0.000000   0.000000   0.000000   0.000000  -0.038863   0.350689
    20  C   -0.000000  -0.000000  -0.000000   0.000000   0.003423  -0.042037
    21  C    0.000000  -0.000000   0.000000   0.000000   0.000838   0.006359
    22  C    0.000000  -0.000000   0.000000   0.000000   0.004588   0.000304
    23  C   -0.000000  -0.000009   0.000304   0.004588   0.000000   0.000000
    24  C    0.000001  -0.000000   0.006359   0.000838   0.000000   0.000000
    25  H    0.000019  -0.000182   0.000000   0.000000   0.000000  -0.000000
    26  H   -0.000181   0.000019   0.000000   0.000000  -0.000000   0.000000
    27  H   -0.000001   0.000000   0.000000  -0.000000   0.000000   0.000000
    28  H    0.000000   0.000000  -0.000000   0.000000   0.000000   0.000000
    29  H    0.000003   0.000000   0.000000  -0.000000   0.000005   0.002739
    30  H    0.002836   0.000003   0.000000   0.000000   0.000000   0.000004
    31  H    0.595768  -0.005339   0.000004   0.000000   0.000000   0.000000
    32  H   -0.005339   0.595231   0.002738   0.000005  -0.000000   0.000000
    33  H    0.000004   0.002738   0.599900  -0.005624   0.000000   0.000000
    34  H    0.000000   0.000005  -0.005624   0.597165   0.000000   0.000000
    35  H    0.000000  -0.000000   0.000000   0.000000   0.597166  -0.005624
    36  H    0.000000   0.000000   0.000000   0.000000  -0.005624   0.599904
    37  H    0.000000  -0.000000  -0.000000   0.000000   0.000017  -0.000173
    38  H   -0.000000   0.000000   0.000000   0.000000  -0.000189   0.000017
    39  H    0.000000   0.000000   0.000017  -0.000189   0.000000   0.000000
    40  H    0.000000   0.000000  -0.000173   0.000017   0.000000  -0.000000
    41  H   -0.000000  -0.000000  -0.000176  -0.005509   0.000000   0.000000
    42  H    0.000000   0.000000   0.000000   0.000000  -0.005509  -0.000176
              37         38         39         40         41         42
     1  C   -0.000000   0.000000   0.003423  -0.042039   0.000611   0.000000
     2  C    0.000000  -0.000000  -0.000180  -0.010019   0.000004   0.000000
     3  C   -0.000000   0.000000  -0.000002   0.005641   0.000000  -0.000000
     4  C    0.000000   0.000000  -0.000000  -0.000021   0.000000   0.000000
     5  C   -0.000000  -0.000000  -0.000000  -0.000004  -0.000000  -0.000000
     6  C   -0.000004  -0.000000  -0.000000  -0.000000  -0.000000  -0.000000
     7  C   -0.000021  -0.000000   0.000000   0.000000   0.000000   0.000000
     8  C    0.005641  -0.000002   0.000000  -0.000000  -0.000000   0.000000
     9  C   -0.010021  -0.000180  -0.000000   0.000000   0.000000   0.000004
    10  C   -0.000007   0.000001  -0.000000   0.000000  -0.000000   0.000000
    11  C   -0.000008  -0.000000  -0.000000   0.000000   0.000000   0.000000
    12  C    0.000000  -0.000000  -0.000000  -0.000008   0.000000   0.000000
    13  C    0.000000  -0.000000   0.000001  -0.000006   0.000000  -0.000000
    14  C    0.000000   0.000000   0.000838   0.006359   0.004778   0.000000
    15  C    0.000000   0.000000   0.004588   0.000304  -0.043150   0.000000
    16  C    0.000000   0.000000  -0.043082   0.004751   0.358993   0.000000
    17  C    0.004751  -0.043082   0.000000   0.000000   0.000000   0.358993
    18  C    0.000304   0.004588   0.000000   0.000000   0.000000  -0.043150
    19  C    0.006359   0.000838   0.000000   0.000000   0.000000   0.004777
    20  C   -0.042037   0.003423   0.000000  -0.000000   0.000000   0.000611
    21  C    0.350689  -0.038863   0.000000   0.000000   0.000000   0.004777
    22  C   -0.044383   0.356949   0.000000   0.000000   0.000000  -0.043150
    23  C    0.000000   0.000000   0.356949  -0.044383  -0.043150   0.000000
    24  C    0.000000   0.000000  -0.038863   0.350691   0.004778   0.000000
    25  H    0.000000  -0.000000   0.000005   0.002738  -0.000000   0.000000
    26  H    0.000000   0.000000   0.000000   0.000004  -0.000000   0.000000
    27  H    0.000004   0.000000   0.000000   0.000000   0.000000  -0.000000
    28  H    0.002739   0.000005  -0.000000   0.000000   0.000000  -0.000000
    29  H    0.000000   0.000000   0.000000  -0.000000   0.000000  -0.000000
    30  H    0.000000   0.000000  -0.000000   0.000000   0.000000  -0.000000
    31  H    0.000000  -0.000000   0.000000   0.000000  -0.000000   0.000000
    32  H   -0.000000   0.000000   0.000000   0.000000  -0.000000   0.000000
    33  H   -0.000000   0.000000   0.000017  -0.000173  -0.000176   0.000000
    34  H    0.000000   0.000000  -0.000189   0.000017  -0.005509   0.000000
    35  H    0.000017  -0.000189   0.000000   0.000000   0.000000  -0.005509
    36  H   -0.000173   0.000017   0.000000  -0.000000   0.000000  -0.000176
    37  H    0.599902  -0.005624   0.000000   0.000000   0.000000  -0.000176
    38  H   -0.005624   0.597167   0.000000   0.000000   0.000000  -0.005509
    39  H    0.000000   0.000000   0.597166  -0.005624  -0.005509   0.000000
    40  H    0.000000   0.000000  -0.005624   0.599901  -0.000176   0.000000
    41  H    0.000000   0.000000  -0.005509  -0.000176   0.598813   0.000000
    42  H   -0.000176  -0.005509   0.000000   0.000000   0.000000   0.598811
 Mulliken charges:
               1
     1  C    0.089213
     2  C    0.094589
     3  C   -0.181572
     4  C   -0.181541
     5  C    0.095792
     6  C    0.095791
     7  C   -0.181542
     8  C   -0.181576
     9  C    0.094604
    10  C   -0.181575
    11  C   -0.181544
    12  C   -0.181539
    13  C   -0.181569
    14  C   -0.173681
    15  C   -0.133620
    16  C   -0.126759
    17  C   -0.126759
    18  C   -0.133622
    19  C   -0.173687
    20  C    0.089229
    21  C   -0.173685
    22  C   -0.133622
    23  C   -0.133621
    24  C   -0.173681
    25  H    0.133515
    26  H    0.133128
    27  H    0.133126
    28  H    0.133513
    29  H    0.133512
    30  H    0.133127
    31  H    0.133128
    32  H    0.133514
    33  H    0.132046
    34  H    0.130461
    35  H    0.130460
    36  H    0.132044
    37  H    0.132045
    38  H    0.130460
    39  H    0.130461
    40  H    0.132046
    41  H    0.129695
    42  H    0.129696
 Sum of Mulliken charges =  -0.00000
 Mulliken charges with hydrogens summed into heavy atoms:
               1
     1  C    0.089213
     2  C    0.094589
     3  C   -0.048057
     4  C   -0.048414
     5  C    0.095792
     6  C    0.095791
     7  C   -0.048416
     8  C   -0.048063
     9  C    0.094604
    10  C   -0.048062
    11  C   -0.048417
    12  C   -0.048412
    13  C   -0.048055
    14  C   -0.041635
    15  C   -0.003159
    16  C    0.002936
    17  C    0.002937
    18  C   -0.003161
    19  C   -0.041643
    20  C    0.089229
    21  C   -0.041640
    22  C   -0.003162
    23  C   -0.003160
    24  C   -0.041635
 Electronic spatial extent (au):  <R**2>=          15604.2758
 Charge=             -0.0000 electrons
 Dipole moment (field-independent basis, Debye):
    X=              0.0000    Y=             -0.0000    Z=              0.0000  Tot=              0.0000
 Quadrupole moment (field-independent basis, Debye-Ang):
   XX=           -119.1819   YY=           -123.8568   ZZ=           -144.6654
   XY=             -0.0000   XZ=              0.0002   YZ=             -0.0000
 Traceless Quadrupole moment (field-independent basis, Debye-Ang):
   XX=             10.0528   YY=              5.3779   ZZ=            -15.4307
   XY=             -0.0000   XZ=              0.0002   YZ=             -0.0000
 Octapole moment (field-independent basis, Debye-Ang**2):
  XXX=             -0.0000  YYY=             -0.0004  ZZZ=             -0.0002  XYY=             -0.0051
  XXY=             -0.0005  XXZ=              0.0057  XZZ=              0.0053  YZZ=              0.0003
  YYZ=              0.0001  XYZ=            -20.2083
 Hexadecapole moment (field-independent basis, Debye-Ang**3):
 XXXX=         -18235.1400 YYYY=           -997.5574 ZZZZ=           -267.6458 XXXY=              0.0171
 XXXZ=             -0.0133 YYYX=             -0.0025 YYYZ=              0.0000 ZZZX=              0.0009
 ZZZY=             -0.0002 XXYY=          -3298.4674 XXZZ=          -3709.5149 YYZZ=           -217.8924
 XXYZ=             -0.0291 YYXZ=              0.0056 ZZXY=             -0.0037
 N-N= 1.646371500085D+03 E-N=-5.434750268902D+03  KE= 9.163232829810D+02
 1\1\GINC-N095\FOpt\RB3LYP\6-31G(d)\C24H18\CCOLWELL\18-Apr-2019\0\\#n B
 3LYP/6-31G(d) opt\\geometry optimization\\0,1\C,5.0723552208,0.1726749
 71,0.0422773782\C,3.5883146849,0.164423808,0.0290599614\C,2.8675836154
 ,0.5117070603,-1.12600982\C,1.4764940957,0.5041454415,-1.1384714496\C,
 0.7388826587,0.14849279,0.0036114611\C,-0.7436134111,0.1401469476,-0.0
 096730742\C,-1.4605620386,-0.2552346033,-1.1518443161\C,-2.8516545527,
 -0.2628499513,-1.1642812937\C,-3.5930643146,0.1241173665,-0.0352122716
 \C,-2.876409447,0.5193136402,1.1069163635\C,-1.4853201794,0.5273579884
 ,1.1194171293\C,1.4599067407,-0.1990459332,1.1586987108\C,2.8510004468
 ,-0.1910450593,1.171087279\C,5.7831210678,0.5931435853,1.1796647674\C,
 7.1769889808,0.6003873834,1.1926779007\C,7.8932839985,0.1883781364,0.0
 673826808\C,-7.8980287774,0.0998312939,-0.0738073329\C,-7.2022639156,-
 0.2722471506,1.0779636108\C,-5.8083822924,-0.2649196512,1.0898719884\C
 ,-5.0770846306,0.1157431196,-0.0485065551\C,-5.7920971768,0.4882848402
 ,-1.1998527272\C,-7.1859579652,0.4798819669,-1.2129453046\C,7.20176008
 45,-0.2314541074,-1.0704384137\C,5.8078828421,-0.2397223694,-1.0822359
 998\H,3.4047955778,0.8268868664,-2.0162335861\H,0.9522268287,0.8140640
 393,-2.0381889753\H,-0.9202318326,-0.596039201,-2.0306461566\H,-3.3727
 363031,-0.6089664042,-2.0526005386\H,-3.4171965666,0.8594843715,1.9857
 049438\H,-0.9646850093,0.8741802495,2.007701921\H,0.92317381,-0.514950
 7459,2.0489324953\H,3.3756954157,-0.5003314127,2.0707917813\H,5.236435
 8654,0.9423001699,2.0512691496\H,7.7044771317,0.9375170241,2.081249165
 3\H,-7.7457686482,-0.5782587385,1.9681419418\H,-5.2776359944,-0.583102
 7767,1.9829247421\H,-5.2490350227,0.8125811633,-2.0832482591\H,-7.7168
 316908,0.77984821,-2.112751215\H,7.7486855396,-0.5625994708,-1.9494556
 858\H,5.2807231177,-0.5948241885,-1.9634151628\H,8.9798665961,0.194425
 9066,0.0770567543\H,-8.9846105501,0.0936944242,-0.0835559879\\Version=
 EM64L-G09RevE.01\State=1-A\HF=-925.4215225\RMSD=9.756e-09\RMSF=2.491e-
 06\Dipole=0.0000108,-0.0000013,-0.0000136\Quadrupole=7.4731343,-11.467
 0481,3.9939138,0.10367,0.0296068,0.2707075\PG=C01 [X(C24H18)]\\@


 ONE OF THE BENEFITS OF A COLLEGE EDUCATION
 IS TO SHOW THE BOY ITS LITTLE AVAIL 
                                    EMERSON IN 'CULTURE'
 Job cpu time:       0 days  1 hours  0 minutes 18.3 seconds.
 File lengths (MBytes):  RWF=     99 Int=      0 D2E=      0 Chk=     12 Scr=      1
 Normal termination of Gaussian 09 at Thu Apr 18 14:02:08 2019.
