
                                 *****************
                                 * O   R   C   A *
                                 *****************

           --- An Ab Initio, DFT and Semiempirical electronic structure package ---

                  #######################################################
                  #                        -***-                        #
                  #          Department of theory and spectroscopy      #
                  #               Directorship: Frank Neese             #
                  #        Max Planck Institute fuer Kohlenforschung    #
                  #                Kaiser Wilhelm Platz 1               #
                  #                 D-45470 Muelheim/Ruhr               #
                  #                      Germany                        #
                  #                                                     #
                  #                  All rights reserved                #
                  #                        -***-                        #
                  #######################################################


                         Program Version 4.2.1 -  RELEASE  -


 With contributions from (in alphabetic order):
   Daniel Aravena         : Magnetic Suceptibility
   Michael Atanasov       : Ab Initio Ligand Field Theory (pilot matlab implementation)
   Alexander A. Auer      : GIAO ZORA, VPT2
   Ute Becker             : Parallelization
   Giovanni Bistoni       : ED, misc. LED, open-shell LED, HFLD
   Martin Brehm           : Molecular dynamics
   Dmytro Bykov           : SCF Hessian
   Vijay G. Chilkuri      : MRCI spin determinant printing, contributions to CSF-ICE
   Dipayan Datta          : RHF DLPNO-CCSD density
   Achintya Kumar Dutta   : EOM-CC, STEOM-CC
   Dmitry Ganyushin       : Spin-Orbit,Spin-Spin,Magnetic field MRCI
   Miquel Garcia          : C-PCM Hessian, Gaussian charge scheme
   Yang Guo               : DLPNO-NEVPT2, CIM, IAO-localization
   Andreas Hansen         : Spin unrestricted coupled pair/coupled cluster methods
   Benjamin Helmich-Paris : CASSCF linear response (MC-RPA)
   Lee Huntington         : MR-EOM, pCC
   Robert Izsak           : Overlap fitted RIJCOSX, COSX-SCS-MP3, EOM
   Christian Kollmar      : KDIIS, OOCD, Brueckner-CCSD(T), CCSD density
   Simone Kossmann        : Meta GGA functionals, TD-DFT gradient, OOMP2, MP2 Hessian
   Martin Krupicka        : AUTO-CI
   Lucas Lang             : DCDCAS
   Dagmar Lenk            : GEPOL surface, SMD
   Dimitrios Liakos       : Extrapolation schemes; Compound Job, initial MDCI parallelization
   Dimitrios Manganas     : Further ROCIS development; embedding schemes
   Dimitrios Pantazis     : SARC Basis sets
   Taras Petrenko         : DFT Hessian,TD-DFT gradient, ASA, ECA, R-Raman, ABS, FL, XAS/XES, NRVS
   Peter Pinski           : DLPNO-MP2, DLPNO-MP2 Gradient
   Christoph Reimann      : Effective Core Potentials
   Marius Retegan         : Local ZFS, SOC
   Christoph Riplinger    : Optimizer, TS searches, QM/MM, DLPNO-CCSD(T), (RO)-DLPNO pert. Triples
   Tobias Risthaus        : Range-separated hybrids, TD-DFT gradient, RPA, STAB
   Michael Roemelt        : Original ROCIS implementation
   Masaaki Saitow         : Open-shell DLPNO-CCSD energy and density
   Barbara Sandhoefer     : DKH picture change effects
   Avijit Sen             : IP-ROCIS
   Kantharuban Sivalingam : CASSCF convergence, NEVPT2, FIC-MRCI
   Bernardo de Souza      : ESD, SOC TD-DFT
   Georgi Stoychev        : AutoAux, RI-MP2 NMR
   Willem Van den Heuvel  : Paramagnetic NMR
   Boris Wezisla          : Elementary symmetry handling
   Frank Wennmohs         : Technical directorship


 We gratefully acknowledge several colleagues who have allowed us to
 interface, adapt or use parts of their codes:
   Stefan Grimme, W. Hujo, H. Kruse,             : VdW corrections, initial TS optimization,
                  C. Bannwarth                     DFT functionals, gCP, sTDA/sTD-DF
   Ed Valeev, F. Pavosevic, A. Kumar             : LibInt (2-el integral package), F12 methods
   Garnet Chan, S. Sharma, J. Yang, R. Olivares  : DMRG
   Ulf Ekstrom                                   : XCFun DFT Library
   Mihaly Kallay                                 : mrcc  (arbitrary order and MRCC methods)
   Andreas Klamt, Michael Diedenhofen            : otool_cosmo (COSMO solvation model)
   Jiri Pittner, Ondrej Demel                    : Mk-CCSD
   Frank Weinhold                                : gennbo (NPA and NBO analysis)
   Christopher J. Cramer and Donald G. Truhlar   : smd solvation model
   Lars Goerigk                                  : TD-DFT with DH, B97 family of functionals
   V. Asgeirsson, H. Jonsson                     : NEB implementation
   FAccTs GmbH                                   : IRC, NEB, NEB-TS, Multilevel, MM, QM/MM, CI optimization
   S Lehtola, MJT Oliveira, MAL Marques          : LibXC Library


 Your calculation uses the libint2 library for the computation of 2-el integrals
 For citations please refer to: http://libint.valeyev.net

 Your ORCA version has been built with support for libXC version: 4.2.3
 For citations please refer to: https://tddft.org/programs/libxc/

 This ORCA versions uses:
   CBLAS   interface :  Fast vector & matrix operations
   LAPACKE interface :  Fast linear algebra routines
   SCALAPACK package :  Parallel linear algebra routines


----- Orbital basis set information -----
Your calculation utilizes the basis: 6-31G*
   H-He, Li-Ne : W. J. Hehre, R. Ditchfield and J.A. Pople, J. Chem. Phys. 56, 2257 (1972).
                 Note: He and Ne are unpublished basis sets taken from the Gaussian program.
                 Note: Li and B from J. D. Dill and J. A. Pople, J. Chem. Phys. 62, 2921 (1975).
   Na - Ar     : M. M. Francl, W. J. Pietro, W. J. Hehre, J. S. Binkley, M. S. Gordon, 
                 D. J. DeFrees and J. A. Pople, J. Chem. Phys. 77, 3654 (1982).
   K - Zn      : V. A. Rassolov, J. A. Pople, M. A. Ratner, and T. L. Windus, J. Chem. Phys. 109, 1223 (1998).

================================================================================
                                        WARNINGS
                       Please study these warnings very carefully!
================================================================================


WARNING: Geometry Optimization
  ===> : Switching off AutoStart
         For restart on a previous wavefunction, please use MOREAD

INFO   : the flag for use of LIBINT has been found!

================================================================================
                                       INPUT FILE
================================================================================
NAME = dummy3.inp
|  1> ! B3LYP OPT 6-31G*
|  2> %pal
|  3> 	nprocs 28
|  4> end
|  5> %geom
|  6> 	coordsys redundant_old
|  7> end
|  8> * xyz 0 1
|  9>   C     -3.452440    0.712200    0.112300
| 10>   C     -2.854410    2.067000   -0.087770
| 11>   C     -2.180790    2.294020   -1.303530
| 12>   C     -0.978290    2.991150   -1.337050
| 13>   C     -0.394940    3.491070   -0.156240
| 14>   C      1.085330    3.355000   -0.004690
| 15>   C      1.935590    3.128250   -1.108620
| 16>   C      2.967690    2.195930   -1.036350
| 17>   C      3.201690    1.456150    0.144260
| 18>   C      2.625670    1.998840    1.311420
| 19>   C      1.586750    2.919730    1.238160
| 20>   C     -1.263000    3.595630    0.953140
| 21>   C     -2.468100    2.896110    0.987490
| 22>   C     -3.146900    0.051140    1.317720
| 23>   C     -2.852670   -1.307900    1.334290
| 24>   C     -2.850710   -2.064690    0.146350
| 25>   C     -1.750560   -3.060350   -0.028940
| 26>   C     -1.025270   -3.587410    1.061510
| 27>   C      0.359930   -3.723820    0.999750
| 28>   C      1.078790   -3.341450   -0.154950
| 29>   C      0.306000   -3.214710   -1.327120
| 30>   C     -1.075390   -3.072660   -1.265180
| 31>   C     -3.530490   -1.484270   -0.947070
| 32>   C     -3.824850   -0.121940   -0.964160
| 33>   H     -2.470040    1.740800   -2.191530
| 34>   H     -0.396430    2.946550   -2.251890
| 35>   H      1.699310    3.559720   -2.077720
| 36>   H      3.484470    1.937480   -1.956170
| 37>   H      2.836720    1.561420    2.281440
| 38>   H      1.036660    3.132860    2.149380
| 39>   H     -0.933730    4.101650    1.857050
| 40>   H     -3.032730    2.880270    1.916480
| 41>   H     -2.915890    0.629970    2.206500
| 42>   H     -2.408990   -1.717030    2.236330
| 43>   H     -1.518110   -3.748470    2.016950
| 44>   H      0.889060   -3.984550    1.912210
| 45>   H      0.786250   -3.012770   -2.278630
| 46>   H     -1.591470   -2.756600   -2.166300
| 47>   H     -3.697240   -2.061540   -1.853050
| 48>   H     -4.208860    0.314830   -1.882820
| 49>   H      3.919362    0.643328    0.181285
| 50>   H      2.163598   -3.325621   -0.177641
| 51> 
| 52> **                         ****END OF INPUT****
================================================================================

                       *****************************
                       * Geometry Optimization Run *
                       *****************************

Geometry optimization settings:
Update method            Update   .... BFGS
Choice of coordinates    CoordSys .... Old Redundant Internals
Initial Hessian          InHess   .... Almoef's Model

Convergence Tolerances:
Energy Change            TolE     ....  5.0000e-06 Eh
Max. Gradient            TolMAXG  ....  3.0000e-04 Eh/bohr
RMS Gradient             TolRMSG  ....  1.0000e-04 Eh/bohr
Max. Displacement        TolMAXD  ....  4.0000e-03 bohr
RMS Displacement         TolRMSD  ....  2.0000e-03 bohr
Strict Convergence                ....  False
------------------------------------------------------------------------------
                        ORCA OPTIMIZATION COORDINATE SETUP
------------------------------------------------------------------------------

The optimization will be done in redundant internal coordinates
Making redundant internal coordinates   ... (old redundants) done
Evaluating the initial hessian          ...  (Almloef) done
Evaluating the coordinates              ...  done
Calculating the B-matrix                .... done
Calculating the G-matrix                .... done
Diagonalizing the G-matrix              .... done
Small eigenvalue found = 2.700e-03
Small eigenvalue found = 3.012e-03
Small eigenvalue found = 7.643e-03
Small eigenvalue found = 1.350e-02
Small eigenvalue found = 1.759e-02
Small eigenvalue found = 2.305e-02
The first mode is                       ....  125
The number of degrees of freedom        ....  120

    -----------------------------------------------------------------
                    Redundant Internal Coordinates


    -----------------------------------------------------------------
         Definition                    Initial Value    Approx d2E/dq
    -----------------------------------------------------------------
      1. B(C   1,C   0)                  1.4944         0.425812   
      2. B(C   2,C   1)                  1.4083         0.584124   
      3. B(C   3,C   2)                  1.3904         0.623955   
      4. B(C   4,C   3)                  1.4087         0.583245   
      5. B(C   5,C   4)                  1.4942         0.426058   
      6. B(C   6,C   5)                  1.4117         0.576831   
      7. B(C   7,C   6)                  1.3927         0.618580   
      8. B(C   8,C   7)                  1.4128         0.574696   
      9. B(C   9,C   8)                  1.4102         0.580179   
     10. B(C  10,C   5)                  1.4091         0.582463   
     11. B(C  10,C   9)                  1.3902         0.624252   
     12. B(C  11,C   4)                  1.4125         0.575208   
     13. B(C  12,C   1)                  1.4117         0.576963   
     14. B(C  12,C  11)                  1.3938         0.616057   
     15. B(C  13,C   0)                  1.4083         0.584110   
     16. B(C  14,C  13)                  1.3906         0.623365   
     17. B(C  15,C  14)                  1.4085         0.583696   
     18. B(C  16,C  15)                  1.4941         0.426208   
     19. B(C  17,C  16)                  1.4117         0.576906   
     20. B(C  18,C  17)                  1.3933         0.617336   
     21. B(C  19,C  18)                  1.4129         0.574376   
     22. B(C  20,C  19)                  1.4097         0.581180   
     23. B(C  21,C  16)                  1.4087         0.583423   
     24. B(C  21,C  20)                  1.3901         0.624670   
     25. B(C  22,C  15)                  1.4123         0.575679   
     26. B(C  23,C   0)                  1.4118         0.576661   
     27. B(C  23,C  22)                  1.3939         0.615969   
     28. B(H  24,C   2)                  1.0855         0.366132   
     29. B(H  25,C   3)                  1.0851         0.366616   
     30. B(H  26,C   6)                  1.0868         0.364349   
     31. B(H  27,C   7)                  1.0862         0.365103   
     32. B(H  28,C   9)                  1.0848         0.367029   
     33. B(H  29,C  10)                  1.0855         0.366081   
     34. B(H  30,C  11)                  1.0870         0.364116   
     35. B(H  31,C  12)                  1.0872         0.363776   
     36. B(H  32,C  13)                  1.0855         0.366084   
     37. B(H  33,C  14)                  1.0853         0.366347   
     38. B(H  34,C  17)                  1.0871         0.364012   
     39. B(H  35,C  18)                  1.0865         0.364723   
     40. B(H  36,C  20)                  1.0848         0.367045   
     41. B(H  37,C  21)                  1.0855         0.366140   
     42. B(H  38,C  22)                  1.0871         0.363920   
     43. B(H  39,C  23)                  1.0873         0.363722   
     44. B(H  40,C   8)                  1.0849         0.366851   
     45. B(H  41,C  19)                  1.0852         0.366559   
     46. A(C   2,C   1,C   0)          116.9450         0.401688   
     47. A(C   3,C   2,C   1)          121.0189         0.429932   
     48. A(C   4,C   3,C   2)          121.0555         0.429816   
     49. A(C   5,C   4,C   3)          117.5763         0.401622   
     50. A(C   6,C   5,C   4)          122.1388         0.400840   
     51. A(C   7,C   6,C   5)          120.8820         0.428299   
     52. A(C   8,C   7,C   6)          121.1078         0.428014   
     53. A(C   9,C   8,C   7)          114.9922         0.423132   
     54. A(C  10,C   5,C   4)          118.0415         0.401527   
     55. A(C  10,C   5,C   6)          115.1996         0.423710   
     56. A(C  10,C   9,C   8)          121.1015         0.429446   
     57. A(C   9,C  10,C   5)          121.1322         0.429749   
     58. A(C  11,C   4,C   3)          115.4746         0.423598   
     59. A(C  11,C   4,C   5)          122.4048         0.400642   
     60. A(C  12,C   1,C   0)          122.6838         0.400816   
     61. A(C  12,C   1,C   2)          115.5929         0.423943   
     62. A(C  12,C  11,C   4)          120.9001         0.427769   
     63. A(C  11,C  12,C   1)          120.8361         0.428003   
     64. A(C  13,C   0,C   1)          116.9571         0.401686   
     65. A(C  14,C  13,C   0)          120.9863         0.429858   
     66. A(C  15,C  14,C  13)          121.0199         0.429803   
     67. A(C  16,C  15,C  14)          117.2592         0.401702   
     68. A(C  17,C  16,C  15)          122.4437         0.400874   
     69. A(C  18,C  17,C  16)          120.8709         0.428155   
     70. A(C  19,C  18,C  17)          121.0353         0.427817   
     71. A(C  20,C  19,C  18)          115.1486         0.423220   
     72. A(C  21,C  16,C  15)          117.4971         0.401668   
     73. A(C  21,C  16,C  17)          115.3647         0.423845   
     74. A(C  21,C  20,C  19)          121.1255         0.429631   
     75. A(C  20,C  21,C  16)          121.0853         0.429928   
     76. A(C  22,C  15,C  14)          115.5619         0.423719   
     77. A(C  22,C  15,C  16)          122.5105         0.400724   
     78. A(C  23,C   0,C   1)          122.6240         0.400779   
     79. A(C  23,C   0,C  13)          115.6267         0.423902   
     80. A(C  23,C  22,C  15)          120.8518         0.427821   
     81. A(C  22,C  23,C   0)          120.8239         0.427952   
     82. A(H  24,C   2,C   1)          119.7755         0.350353   
     83. A(H  24,C   2,C   3)          117.7934         0.354285   
     84. A(H  25,C   3,C   2)          117.6120         0.354364   
     85. A(H  25,C   3,C   4)          119.9480         0.350342   
     86. A(H  26,C   6,C   5)          120.1699         0.349323   
     87. A(H  26,C   6,C   7)          118.2390         0.353473   
     88. A(H  27,C   7,C   6)          117.8979         0.353597   
     89. A(H  27,C   7,C   8)          120.2819         0.349227   
     90. A(H  28,C   9,C   8)          120.3610         0.350097   
     91. A(H  28,C   9,C  10)          117.3613         0.354460   
     92. A(H  29,C  10,C   5)          119.9617         0.350177   
     93. A(H  29,C  10,C   9)          117.6789         0.354305   
     94. A(H  30,C  11,C   4)          120.0939         0.349120   
     95. A(H  30,C  11,C  12)          118.3622         0.353190   
     96. A(H  31,C  12,C   1)          120.0102         0.349244   
     97. A(H  31,C  12,C  11)          118.5141         0.353135   
     98. A(H  32,C  13,C   0)          119.7801         0.350344   
     99. A(H  32,C  13,C  14)          117.7968         0.354220   
    100. A(H  33,C  14,C  13)          117.6975         0.354263   
    101. A(H  33,C  14,C  15)          119.8584         0.350345   
    102. A(H  34,C  17,C  16)          120.0859         0.349276   
    103. A(H  34,C  17,C  18)          118.3723         0.353297   
    104. A(H  35,C  18,C  17)          118.0628         0.353414   
    105. A(H  35,C  18,C  19)          120.2314         0.349133   
    106. A(H  36,C  20,C  19)          120.2240         0.350202   
    107. A(H  36,C  20,C  21)          117.3877         0.354503   
    108. A(H  37,C  21,C  16)          119.8765         0.350283   
    109. A(H  37,C  21,C  20)          117.7259         0.354355   
    110. A(H  38,C  22,C  15)          120.0536         0.349136   
    111. A(H  38,C  22,C  23)          118.4491         0.353150   
    112. A(H  39,C  23,C   0)          120.0027         0.349205   
    113. A(H  39,C  23,C  22)          118.5265         0.353117   
    114. A(H  40,C   8,C   7)          122.0317         0.349508   
    115. A(H  40,C   8,C   9)          122.0238         0.350069   
    116. A(H  41,C  19,C  18)          121.9820         0.349428   
    117. A(H  41,C  19,C  20)          121.9594         0.350123   
    118. D(C   2,C   1,C   0,C  13)    129.4954         0.012396   
    119. D(C  12,C   1,C   0,C  13)    -24.9093         0.012396   
    120. D(C   2,C   1,C   0,C  23)    -24.8840         0.012396   
    121. D(C  12,C   1,C   0,C  23)   -179.2887         0.012396   
    122. D(C   3,C   2,C   1,C   0)   -138.2998         0.023457   
    123. D(C   3,C   2,C   1,C  12)     17.9241         0.023457   
    124. D(H  24,C   2,C   1,C   0)     27.8398         0.023457   
    125. D(H  24,C   2,C   1,C  12)   -175.9364         0.023457   
    126. D(C   4,C   3,C   2,C   1)      0.0725         0.026961   
    127. D(C   4,C   3,C   2,H  24)   -166.3331         0.026961   
    128. D(H  25,C   3,C   2,C   1)    166.6320         0.026961   
    129. D(H  25,C   3,C   2,H  24)      0.2264         0.026961   
    130. D(C   5,C   4,C   3,C   2)    138.6340         0.023383   
    131. D(C  11,C   4,C   3,C   2)    -18.0755         0.023383   
    132. D(C   5,C   4,C   3,H  25)    -27.6151         0.023383   
    133. D(C  11,C   4,C   3,H  25)    175.6753         0.023383   
    134. D(C   6,C   5,C   4,C   3)     19.0852         0.012410   
    135. D(C  10,C   5,C   4,C   3)   -135.6481         0.012410   
    136. D(C   6,C   5,C   4,C  11)    174.0746         0.012410   
    137. D(C  10,C   5,C   4,C  11)     19.3413         0.012410   
    138. D(C   7,C   6,C   5,C   4)   -136.5216         0.022849   
    139. D(C   7,C   6,C   5,C  10)     18.8741         0.022849   
    140. D(H  26,C   6,C   5,C   4)     33.6601         0.022849   
    141. D(H  26,C   6,C   5,C  10)   -170.9442         0.022849   
    142. D(C   8,C   7,C   6,C   5)     -0.4470         0.026470   
    143. D(C   8,C   7,C   6,H  26)   -170.8137         0.026470   
    144. D(H  27,C   7,C   6,C   5)    169.9067         0.026470   
    145. D(H  27,C   7,C   6,H  26)     -0.4600         0.026470   
    146. D(C   9,C   8,C   7,C   6)    -18.5611         0.022672   
    147. D(C   9,C   8,C   7,H  27)    171.3134         0.022672   
    148. D(H  40,C   8,C   7,C   6)    172.4004         0.022672   
    149. D(H  40,C   8,C   7,H  27)      2.2749         0.022672   
    150. D(C  10,C   9,C   8,C   7)     19.1985         0.023127   
    151. D(H  28,C   9,C   8,C   7)   -173.5222         0.023127   
    152. D(C  10,C   9,C   8,H  40)   -171.7620         0.023127   
    153. D(H  28,C   9,C   8,H  40)     -4.4827         0.023127   
    154. D(C   9,C  10,C   5,C   4)    138.1696         0.023318   
    155. D(C   9,C  10,C   5,C   6)    -18.2873         0.023318   
    156. D(H  29,C  10,C   5,C   4)    -28.8813         0.023318   
    157. D(H  29,C  10,C   5,C   6)    174.6618         0.023318   
    158. D(C   5,C  10,C   9,C   8)     -0.8138         0.026988   
    159. D(C   5,C  10,C   9,H  28)   -168.4609         0.026988   
    160. D(H  29,C  10,C   9,C   8)    166.5226         0.026988   
    161. D(H  29,C  10,C   9,H  28)     -1.1244         0.026988   
    162. D(C  12,C  11,C   4,C   3)     18.0909         0.022714   
    163. D(C  12,C  11,C   4,C   5)   -137.3826         0.022714   
    164. D(H  30,C  11,C   4,C   3)   -171.2571         0.022714   
    165. D(H  30,C  11,C   4,C   5)     33.2695         0.022714   
    166. D(C  11,C  12,C   1,C   0)    136.8791         0.022860   
    167. D(C  11,C  12,C   1,C   2)    -17.8430         0.022860   
    168. D(H  31,C  12,C   1,C   0)    -33.8181         0.022860   
    169. D(H  31,C  12,C   1,C   2)    171.4598         0.022860   
    170. D(C   1,C  12,C  11,C   4)     -0.1641         0.026242   
    171. D(C   1,C  12,C  11,H  30)   -170.9743         0.026242   
    172. D(H  31,C  12,C  11,C   4)    170.6694         0.026242   
    173. D(H  31,C  12,C  11,H  30)     -0.1408         0.026242   
    174. D(C  14,C  13,C   0,C   1)   -138.1884         0.023456   
    175. D(C  14,C  13,C   0,C  23)     17.9880         0.023456   
    176. D(H  32,C  13,C   0,C   1)     27.8338         0.023456   
    177. D(H  32,C  13,C   0,C  23)   -175.9898         0.023456   
    178. D(C  15,C  14,C  13,C   0)      0.0235         0.026907   
    179. D(C  15,C  14,C  13,H  32)   -166.2672         0.026907   
    180. D(H  33,C  14,C  13,C   0)    166.3835         0.026907   
    181. D(H  33,C  14,C  13,H  32)      0.0927         0.026907   
    182. D(C  16,C  15,C  14,C  13)    138.3919         0.023421   
    183. D(C  22,C  15,C  14,C  13)    -18.0472         0.023421   
    184. D(C  16,C  15,C  14,H  33)    -27.6768         0.023421   
    185. D(C  22,C  15,C  14,H  33)    175.8841         0.023421   
    186. D(C  17,C  16,C  15,C  14)     21.9400         0.012419   
    187. D(C  21,C  16,C  15,C  14)   -132.6326         0.012419   
    188. D(C  17,C  16,C  15,C  22)    176.6242         0.012419   
    189. D(C  21,C  16,C  15,C  22)     22.0516         0.012419   
    190. D(C  18,C  17,C  16,C  15)   -136.7075         0.022855   
    191. D(C  18,C  17,C  16,C  21)     18.3634         0.022855   
    192. D(H  34,C  17,C  16,C  15)     33.7527         0.022855   
    193. D(H  34,C  17,C  16,C  21)   -171.1764         0.022855   
    194. D(C  19,C  18,C  17,C  16)     -0.1055         0.026358   
    195. D(C  19,C  18,C  17,H  34)   -170.7254         0.026358   
    196. D(H  35,C  18,C  17,C  16)    170.5301         0.026358   
    197. D(H  35,C  18,C  17,H  34)     -0.0899         0.026358   
    198. D(C  20,C  19,C  18,C  17)    -18.3793         0.022646   
    199. D(C  20,C  19,C  18,H  35)    171.1868         0.022646   
    200. D(H  41,C  19,C  18,C  17)    172.3433         0.022646   
    201. D(H  41,C  19,C  18,H  35)      1.9094         0.022646   
    202. D(C  21,C  20,C  19,C  18)     18.6867         0.023210   
    203. D(H  36,C  20,C  19,C  18)   -174.4835         0.023210   
    204. D(C  21,C  20,C  19,H  41)   -172.0332         0.023210   
    205. D(H  36,C  20,C  19,H  41)     -5.2035         0.023210   
    206. D(C  20,C  21,C  16,C  15)    138.2415         0.023398   
    207. D(C  20,C  21,C  16,C  17)    -18.1172         0.023398   
    208. D(H  37,C  21,C  16,C  15)    -28.3804         0.023398   
    209. D(H  37,C  21,C  16,C  17)    175.2610         0.023398   
    210. D(C  16,C  21,C  20,C  19)     -0.4663         0.027027   
    211. D(C  16,C  21,C  20,H  36)   -167.6559         0.027027   
    212. D(H  37,C  21,C  20,C  19)    166.4337         0.027027   
    213. D(H  37,C  21,C  20,H  36)     -0.7559         0.027027   
    214. D(C  23,C  22,C  15,C  14)     18.0477         0.022753   
    215. D(C  23,C  22,C  15,C  16)   -137.0317         0.022753   
    216. D(H  38,C  22,C  15,C  14)   -171.3037         0.022753   
    217. D(H  38,C  22,C  15,C  16)     33.6169         0.022753   
    218. D(C  22,C  23,C   0,C   1)    136.7691         0.022835   
    219. D(C  22,C  23,C   0,C  13)    -17.9232         0.022835   
    220. D(H  39,C  23,C   0,C   1)    -33.8764         0.022835   
    221. D(H  39,C  23,C   0,C  13)    171.4313         0.022835   
    222. D(C   0,C  23,C  22,C  15)     -0.0879         0.026234   
    223. D(C   0,C  23,C  22,H  38)   -170.8834         0.026234   
    224. D(H  39,C  23,C  22,C  15)    170.6928         0.026234   
    225. D(H  39,C  23,C  22,H  38)     -0.1026         0.026234   
    226. I(C   0,C  12,C   2,C   1)    -21.0632         0.035599   
    227. I(C   1,C  23,C  13,C   0)    -21.1023         0.035564   
    228. I(C   1,H  24,C   3,C   2)     11.6209         0.052130   
    229. I(C   2,H  25,C   4,C   3)     11.7494         0.057347   
    230. I(C   3,C  11,C   5,C   4)    -22.0092         0.054901   
    231. I(C   4,C  10,C   6,C   5)    -20.6433         0.036000   
    232. I(C   5,H  26,C   7,C   6)      8.2572         0.053223   
    233. I(C   6,H  27,C   8,C   7)      8.4432         0.058891   
    234. I(C   7,H  40,C   9,C   8)     -9.9234         0.052003   
    235. I(C   8,H  28,C  10,C   9)     10.5551         0.052335   
    236. I(C   4,H  30,C  12,C  11)      7.8765         0.053193   
    237. I(C   0,H  32,C  14,C  13)     11.7226         0.052056   
    238. I(C  13,H  33,C  15,C  14)     11.9072         0.057141   
    239. I(C  14,C  22,C  16,C  15)    -22.3411         0.054471   
    240. I(C  15,C  21,C  17,C  16)    -20.8369         0.035847   
    241. I(C  16,H  34,C  18,C  17)      8.0416         0.053342   
    242. I(C  17,H  35,C  19,C  18)      8.1865         0.058863   
    243. I(C  18,H  41,C  20,C  19)     -9.6935         0.052098   
    244. I(C  19,H  36,C  21,C  20)     10.9414         0.052213   
    245. I(C  15,H  38,C  23,C  22)      7.8931         0.053249   
    -----------------------------------------------------------------

Number of atoms                         .... 42
Number of degrees of freedom            .... 245

         *************************************************************
         *                GEOMETRY OPTIMIZATION CYCLE   1            *
         *************************************************************
---------------------------------
CARTESIAN COORDINATES (ANGSTROEM)
---------------------------------
  C     -3.452440    0.712200    0.112300
  C     -2.854410    2.067000   -0.087770
  C     -2.180790    2.294020   -1.303530
  C     -0.978290    2.991150   -1.337050
  C     -0.394940    3.491070   -0.156240
  C      1.085330    3.355000   -0.004690
  C      1.935590    3.128250   -1.108620
  C      2.967690    2.195930   -1.036350
  C      3.201690    1.456150    0.144260
  C      2.625670    1.998840    1.311420
  C      1.586750    2.919730    1.238160
  C     -1.263000    3.595630    0.953140
  C     -2.468100    2.896110    0.987490
  C     -3.146900    0.051140    1.317720
  C     -2.852670   -1.307900    1.334290
  C     -2.850710   -2.064690    0.146350
  C     -1.750560   -3.060350   -0.028940
  C     -1.025270   -3.587410    1.061510
  C      0.359930   -3.723820    0.999750
  C      1.078790   -3.341450   -0.154950
  C      0.306000   -3.214710   -1.327120
  C     -1.075390   -3.072660   -1.265180
  C     -3.530490   -1.484270   -0.947070
  C     -3.824850   -0.121940   -0.964160
  H     -2.470040    1.740800   -2.191530
  H     -0.396430    2.946550   -2.251890
  H      1.699310    3.559720   -2.077720
  H      3.484470    1.937480   -1.956170
  H      2.836720    1.561420    2.281440
  H      1.036660    3.132860    2.149380
  H     -0.933730    4.101650    1.857050
  H     -3.032730    2.880270    1.916480
  H     -2.915890    0.629970    2.206500
  H     -2.408990   -1.717030    2.236330
  H     -1.518110   -3.748470    2.016950
  H      0.889060   -3.984550    1.912210
  H      0.786250   -3.012770   -2.278630
  H     -1.591470   -2.756600   -2.166300
  H     -3.697240   -2.061540   -1.853050
  H     -4.208860    0.314830   -1.882820
  H      3.919362    0.643328    0.181285
  H      2.163598   -3.325621   -0.177641

----------------------------
CARTESIAN COORDINATES (A.U.)
----------------------------
  NO LB      ZA    FRAG     MASS         X           Y           Z
   0 C     6.0000    0    12.011   -6.524166    1.345863    0.212216
   1 C     6.0000    0    12.011   -5.394053    3.906064   -0.165861
   2 C     6.0000    0    12.011   -4.121096    4.335070   -2.463315
   3 C     6.0000    0    12.011   -1.848700    5.652454   -2.526658
   4 C     6.0000    0    12.011   -0.746328    6.597166   -0.295251
   5 C     6.0000    0    12.011    2.050976    6.340031   -0.008863
   6 C     6.0000    0    12.011    3.657735    5.911536   -2.094988
   7 C     6.0000    0    12.011    5.608121    4.149706   -1.958418
   8 C     6.0000    0    12.011    6.050317    2.751725    0.272612
   9 C     6.0000    0    12.011    4.961797    3.777260    2.478225
  10 C     6.0000    0    12.011    2.998523    5.517490    2.339783
  11 C     6.0000    0    12.011   -2.386724    6.794756    1.801174
  12 C     6.0000    0    12.011   -4.664033    5.472855    1.866086
  13 C     6.0000    0    12.011   -5.946779    0.096641    2.490130
  14 C     6.0000    0    12.011   -5.390765   -2.471573    2.521443
  15 C     6.0000    0    12.011   -5.387061   -3.901699    0.276561
  16 C     6.0000    0    12.011   -3.308079   -5.783223   -0.054689
  17 C     6.0000    0    12.011   -1.937480   -6.779222    2.005963
  18 C     6.0000    0    12.011    0.680169   -7.037000    1.889254
  19 C     6.0000    0    12.011    2.038618   -6.314425   -0.292813
  20 C     6.0000    0    12.011    0.578256   -6.074921   -2.507893
  21 C     6.0000    0    12.011   -2.032193   -5.806486   -2.390844
  22 C     6.0000    0    12.011   -6.671659   -2.804864   -1.789703
  23 C     6.0000    0    12.011   -7.227919   -0.230433   -1.821998
  24 H     1.0000    0     1.008   -4.667699    3.289635   -4.141392
  25 H     1.0000    0     1.008   -0.749144    5.568173   -4.255455
  26 H     1.0000    0     1.008    3.211231    6.726896   -3.926322
  27 H     1.0000    0     1.008    6.584694    3.661307   -3.696626
  28 H     1.0000    0     1.008    5.360624    2.950656    4.311297
  29 H     1.0000    0     1.008    1.959003    5.920247    4.061740
  30 H     1.0000    0     1.008   -1.764494    7.750995    3.509316
  31 H     1.0000    0     1.008   -5.731029    5.442921    3.621622
  32 H     1.0000    0     1.008   -5.510234    1.190471    4.169681
  33 H     1.0000    0     1.008   -4.552331   -3.244716    4.226051
  34 H     1.0000    0     1.008   -2.868812   -7.083582    3.811483
  35 H     1.0000    0     1.008    1.680080   -7.529708    3.613553
  36 H     1.0000    0     1.008    1.485797   -5.693310   -4.305987
  37 H     1.0000    0     1.008   -3.007442   -5.209219   -4.093714
  38 H     1.0000    0     1.008   -6.986771   -3.895746   -3.501757
  39 H     1.0000    0     1.008   -7.953593    0.594942   -3.558014
  40 H     1.0000    0     1.008    7.406521    1.215714    0.342579
  41 H     1.0000    0     1.008    4.088608   -6.284513   -0.335693

--------------------------------
INTERNAL COORDINATES (ANGSTROEM)
--------------------------------
 C      0   0   0     0.000000000000     0.00000000     0.00000000
 C      1   0   0     1.494373087887     0.00000000     0.00000000
 C      2   1   0     1.408323244997   116.94496459     0.00000000
 C      3   2   1     1.390366885861   121.01891143   221.70024825
 C      4   3   2     1.408733290939   121.05545133     0.07249460
 C      5   4   3     1.494216088891   117.57626787   138.63400384
 C      6   5   4     1.411743275174   122.13877833    19.08522926
 C      7   6   5     1.392721775984   120.88195950   223.47838203
 C      8   7   6     1.412752781098   121.10780469   359.55302890
 C      9   8   7     1.410168054559   114.99215638   341.43887717
 C     10   9   8     1.390237456732   121.10146959    19.19853473
 C      5   4   3     1.412510156282   115.47458631   341.92445393
 C     12   5   4     1.393834338399   120.90006211    18.09087082
 C      1   2   3     1.408329645928   116.95709806   129.49536763
 C     14   1   2     1.390624168998   120.98634117   221.81155938
 C     15  14   1     1.408522768471   121.01986464     0.02353366
 C     16  15  14     1.494120290405   117.25915859   138.39187999
 C     17  16  15     1.411707841658   122.44365650    21.93998615
 C     18  17  16     1.393269904110   120.87089659   223.29247592
 C     19  18  17     1.412904316116   121.03525948   359.89454711
 C     20  19  18     1.409698521174   115.14864785   341.62065206
 C     21  20  19     1.390055070204   121.12548647    18.68673622
 C     16  15  14     1.412287336628   115.56190921   341.95278085
 C     23  16  15     1.393873346685   120.85180166    18.04769644
 H      3   2   1     1.085477743162   119.77548923    27.83977084
 H      4   3   2     1.085118631856   117.61197089   166.63199232
 H      7   6   5     1.086806978861   120.16991484    33.66006576
 H      8   7   6     1.086244357085   117.89786599   169.90672567
 H     10   9   8     1.084812038696   120.36102012   186.47784034
 H     11  10   9     1.085516141474   117.67890333   166.52263520
 H     12   5   4     1.086981260832   120.09385070   188.74292359
 H     13  12   5     1.087235191943   118.51411844   170.66941343
 H     14   1   2     1.085513554683   119.78014562    27.83375051
 H     15  14   1     1.085318138105   117.69754836   166.38345461
 H     18  17  16     1.087058960130   120.08587577    33.75267165
 H     19  18  17     1.086527469234   118.06282786   170.53005623
 H     21  20  19     1.084800030513   120.22402909   185.51645100
 H     22  21  20     1.085472129721   117.72592139   166.43370812
 H     23  16  15     1.087127396306   120.05356758   188.69630624
 H     24  23  16     1.087275452036   118.52651487   170.69283044
 H      9   8   7     1.084944032609   122.03169630   172.40042096
 H     20  19  18     1.085160741819   121.98201000   172.34329717

---------------------------
INTERNAL COORDINATES (A.U.)
---------------------------
 C      0   0   0     0.000000000000     0.00000000     0.00000000
 C      1   0   0     2.823955878008     0.00000000     0.00000000
 C      2   1   0     2.661345241080   116.94496459     0.00000000
 C      3   2   1     2.627412639951   121.01891143   221.70024825
 C      4   3   2     2.662120115612   121.05545133     0.07249460
 C      5   4   3     2.823659192902   117.57626787   138.63400384
 C      6   5   4     2.667808161485   122.13877833    19.08522926
 C      7   6   5     2.631862737358   120.88195950   223.47838203
 C      8   7   6     2.669715851211   121.10780469   359.55302890
 C      9   8   7     2.664831425922   114.99215638   341.43887717
 C     10   9   8     2.627168054342   121.10146959    19.19853473
 C      5   4   3     2.669257356755   115.47458631   341.92445393
 C     12   5   4     2.633965175629   120.90006211    18.09087082
 C      1   2   3     2.661357337086   116.95709806   129.49536763
 C     14   1   2     2.627898834617   120.98634117   221.81155938
 C     15  14   1     2.661722285802   121.01986464     0.02353366
 C     16  15  14     2.823478160000   117.25915859   138.39187999
 C     17  16  15     2.667741201844   122.44365650    21.93998615
 C     18  17  16     2.632898549404   120.87089659   223.29247592
 C     19  18  17     2.670002210895   121.03525948   359.89454711
 C     20  19  18     2.663944136413   115.14864785   341.62065206
 C     21  20  19     2.626823393754   121.12548647    18.68673622
 C     16  15  14     2.668836288632   115.56190921   341.95278085
 C     23  16  15     2.634038890608   120.85180166    18.04769644
 H      3   2   1     2.051255659043   119.77548923    27.83977084
 H      4   3   2     2.050577037022   117.61197089   166.63199232
 H      7   6   5     2.053767550481   120.16991484    33.66006576
 H      8   7   6     2.052704349409   117.89786599   169.90672567
 H     10   9   8     2.049997659916   120.36102012   186.47784034
 H     11  10   9     2.051328221336   117.67890333   166.52263520
 H     12   5   4     2.054096895677   120.09385070   188.74292359
 H     13  12   5     2.054576755934   118.51411844   170.66941343
 H     14   1   2     2.051323333010   119.78014562    27.83375051
 H     15  14   1     2.050954049196   117.69754836   166.38345461
 H     18  17  16     2.054243726072   120.08587577    33.75267165
 H     19  18  17     2.053239353835   118.06282786   170.53005623
 H     21  20  19     2.049974967738   120.22402909   185.51645100
 H     22  21  20     2.051245051176   117.72592139   166.43370812
 H     23  16  15     2.054373051702   120.05356758   188.69630624
 H     24  23  16     2.054652836483   118.52651487   170.69283044
 H      9   8   7     2.050247092262   122.03169630   172.40042096
 H     20  19  18     2.050656613321   121.98201000   172.34329717

---------------------
BASIS SET INFORMATION
---------------------
There are 2 groups of distinct atoms

 Group   1 Type C   : 10s4p1d contracted to 3s2p1d pattern {631/31/1}
 Group   2 Type H   : 4s contracted to 2s pattern {31}

Atom   0C    basis set group =>   1
Atom   1C    basis set group =>   1
Atom   2C    basis set group =>   1
Atom   3C    basis set group =>   1
Atom   4C    basis set group =>   1
Atom   5C    basis set group =>   1
Atom   6C    basis set group =>   1
Atom   7C    basis set group =>   1
Atom   8C    basis set group =>   1
Atom   9C    basis set group =>   1
Atom  10C    basis set group =>   1
Atom  11C    basis set group =>   1
Atom  12C    basis set group =>   1
Atom  13C    basis set group =>   1
Atom  14C    basis set group =>   1
Atom  15C    basis set group =>   1
Atom  16C    basis set group =>   1
Atom  17C    basis set group =>   1
Atom  18C    basis set group =>   1
Atom  19C    basis set group =>   1
Atom  20C    basis set group =>   1
Atom  21C    basis set group =>   1
Atom  22C    basis set group =>   1
Atom  23C    basis set group =>   1
Atom  24H    basis set group =>   2
Atom  25H    basis set group =>   2
Atom  26H    basis set group =>   2
Atom  27H    basis set group =>   2
Atom  28H    basis set group =>   2
Atom  29H    basis set group =>   2
Atom  30H    basis set group =>   2
Atom  31H    basis set group =>   2
Atom  32H    basis set group =>   2
Atom  33H    basis set group =>   2
Atom  34H    basis set group =>   2
Atom  35H    basis set group =>   2
Atom  36H    basis set group =>   2
Atom  37H    basis set group =>   2
Atom  38H    basis set group =>   2
Atom  39H    basis set group =>   2
Atom  40H    basis set group =>   2
Atom  41H    basis set group =>   2


           ************************************************************
           *        Program running with 28 parallel MPI-processes    *
           *              working on a common directory               *
           ************************************************************
------------------------------------------------------------------------------
                           ORCA GTO INTEGRAL CALCULATION
------------------------------------------------------------------------------

                         BASIS SET STATISTICS AND STARTUP INFO

 # of primitive gaussian shells          ...  432
 # of primitive gaussian functions       ...  720
 # of contracted shells                  ...  180
 # of contracted basis functions         ...  372
 Highest angular momentum                ...    2
 Maximum contraction depth               ...    6
 Integral package used                   ... LIBINT
 Integral threshhold            Thresh   ...  2.500e-11
 Primitive cut-off              TCut     ...  2.500e-12


------------------------------ INTEGRAL EVALUATION ----------------------------


 * One electron integrals 
 Pre-screening matrix                    ... done
 Shell pair data                         ... done (   0.005 sec)



           ************************************************************
           *        Program running with 28 parallel MPI-processes    *
           *              working on a common directory               *
           ************************************************************
-------------------------------------------------------------------------------
                                 ORCA SCF
-------------------------------------------------------------------------------

------------
SCF SETTINGS
------------
Hamiltonian:
 Density Functional     Method          .... DFT(GTOs)
 Exchange Functional    Exchange        .... B88
   X-Alpha parameter    XAlpha          ....  0.666667
   Becke's b parameter  XBeta           ....  0.004200
 Correlation Functional Correlation     .... LYP
 LDA part of GGA corr.  LDAOpt          .... VWN-5
 Gradients option       PostSCFGGA      .... off
 Hybrid DFT is turned on
   Fraction HF Exchange ScalHFX         ....  0.200000
   Scaling of DF-GGA-X  ScalDFX         ....  0.720000
   Scaling of DF-GGA-C  ScalDFC         ....  0.810000
   Scaling of DF-LDA-C  ScalLDAC        ....  1.000000
   Perturbative correction              ....  0.000000
   Density functional embedding theory  .... OFF
   NL short-range parameter             ....  4.800000


General Settings:
 Integral files         IntName         .... dummy3
 Hartree-Fock type      HFTyp           .... RHF
 Total Charge           Charge          ....    0
 Multiplicity           Mult            ....    1
 Number of Electrons    NEL             ....  162
 Basis Dimension        Dim             ....  372
 Nuclear Repulsion      ENuc            ....   1797.4592264665 Eh

Convergence Acceleration:
 DIIS                   CNVDIIS         .... on
   Start iteration      DIISMaxIt       ....    12
   Startup error        DIISStart       ....  0.200000
   # of expansion vecs  DIISMaxEq       ....     5
   Bias factor          DIISBfac        ....   1.050
   Max. coefficient     DIISMaxC        ....  10.000
 Newton-Raphson         CNVNR           .... off
 SOSCF                  CNVSOSCF        .... on
   Start iteration      SOSCFMaxIt      ....   150
   Startup grad/error   SOSCFStart      ....  0.003300
 Level Shifting         CNVShift        .... on
   Level shift para.    LevelShift      ....    0.2500
   Turn off err/grad.   ShiftErr        ....    0.0010
 Zerner damping         CNVZerner       .... off
 Static damping         CNVDamp         .... on
   Fraction old density DampFac         ....    0.7000
   Max. Damping (<1)    DampMax         ....    0.9800
   Min. Damping (>=0)   DampMin         ....    0.0000
   Turn off err/grad.   DampErr         ....    0.1000
 Fernandez-Rico         CNVRico         .... off

SCF Procedure:
 Maximum # iterations   MaxIter         ....   125
 SCF integral mode      SCFMode         .... Direct
   Integral package                     .... LIBINT
 Reset frequency        DirectResetFreq ....    20
 Integral Threshold     Thresh          ....  2.500e-11 Eh
 Primitive CutOff       TCut            ....  2.500e-12 Eh

Convergence Tolerance:
 Convergence Check Mode ConvCheckMode   .... Total+1el-Energy
 Convergence forced     ConvForced      .... 0
 Energy Change          TolE            ....  1.000e-08 Eh
 1-El. energy change                    ....  1.000e-05 Eh
 Orbital Gradient       TolG            ....  1.000e-05
 Orbital Rotation angle TolX            ....  1.000e-05
 DIIS Error             TolErr          ....  5.000e-07


Diagonalization of the overlap matrix:
Smallest eigenvalue                        ... 4.781e-04
Time for diagonalization                   ...    0.020 sec
Threshold for overlap eigenvalues          ... 1.000e-08
Number of eigenvalues below threshold      ... 0
Time for construction of square roots      ...    0.016 sec
Total time needed                          ...    0.036 sec

-------------------
DFT GRID GENERATION
-------------------

General Integration Accuracy     IntAcc      ...  4.340
Radial Grid Type                 RadialGrid  ... Gauss-Chebyshev
Angular Grid (max. acc.)         AngularGrid ... Lebedev-110
Angular grid pruning method      GridPruning ... 3 (G Style)
Weight generation scheme         WeightScheme... Becke
Basis function cutoff            BFCut       ...    1.0000e-11
Integration weight cutoff        WCut        ...    1.0000e-14
Grids for H and He will be reduced by one unit

# of grid points (after initial pruning)     ...  54036 (   0.0 sec)
# of grid points (after weights+screening)   ...  47824 (   0.0 sec)
nearest neighbour list constructed           ...    0.0 sec
Grid point re-assignment to atoms done       ...    0.0 sec
Grid point division into batches done        ...    0.0 sec
Reduced shell lists constructed in    0.1 sec

Total number of grid points                  ...    47824
Total number of batches                      ...      767
Average number of points per batch           ...       62
Average number of grid points per atom       ...     1139
Average number of shells per batch           ...    99.66 (55.36%)
Average number of basis functions per batch  ...   206.76 (55.58%)
Average number of large shells per batch     ...    65.38 (65.61%)
Average number of large basis fcns per batch ...   140.28 (67.85%)
Maximum spatial batch extension              ...  16.33,  8.83,  7.56 au
Average spatial batch extension              ...   0.10,  0.09,  0.08 au

Time for grid setup =    0.131 sec

------------------------------
INITIAL GUESS: MODEL POTENTIAL
------------------------------
Loading Hartree-Fock densities                     ... done
Calculating cut-offs                               ... done
Setting up the integral package                    ... done
Initializing the effective Hamiltonian             ... done
Starting the Coulomb interaction                   ... done (   0.0 sec)
Reading the grid                                   ... done
Mapping shells                                     ... done
Starting the XC term evaluation                    ... done (   0.0 sec)
  promolecular density results
     # of electrons  =    161.982281659
     EX              =   -128.701973317
     EC              =     -5.423356855
     EX+EC           =   -134.125330171
Transforming the Hamiltonian                       ... done (   0.0 sec)
Diagonalizing the Hamiltonian                      ... done (   0.0 sec)
Back transforming the eigenvectors                 ... done (   0.0 sec)
Now organizing SCF variables                       ... done
                      ------------------
                      INITIAL GUESS DONE (   0.3 sec)
                      ------------------
--------------
SCF ITERATIONS
--------------
ITER       Energy         Delta-E        Max-DP      RMS-DP      [F,P]     Damp
               ***  Starting incremental Fock matrix formation  ***
  0   -924.2075200469   0.000000000000 0.04028935  0.00138452  0.1166359 0.7000
  1   -924.4127136893  -0.205193642481 0.03124821  0.00102960  0.0639757 0.7000
                               ***Turning on DIIS***
  2   -924.5065502255  -0.093836536173 0.05504350  0.00177999  0.0285911 0.0000
  3   -924.6416337106  -0.135083485060 0.02459859  0.00075839  0.0383533 0.0000
  4   -924.6740983731  -0.032464662504 0.00919810  0.00021106  0.0069661 0.0000
                      *** Initiating the SOSCF procedure ***
                           *** Shutting down DIIS ***
                      *** Re-Reading the Fockian *** 
                      *** Removing any level shift *** 
ITER      Energy       Delta-E        Grad      Rot      Max-DP    RMS-DP
  5   -924.67573144  -0.0016330636  0.000714  0.000714  0.002804  0.000064
               *** Restarting incremental Fock matrix formation ***
  6   -924.67579926  -0.0000678269  0.000353  0.001660  0.001593  0.000040
  7   -924.67578906   0.0000102006  0.000603  0.000954  0.001124  0.000020
  8   -924.67580889  -0.0000198319  0.000112  0.000355  0.000564  0.000011
  9   -924.67580773   0.0000011691  0.000163  0.000295  0.000405  0.000006
 10   -924.67580952  -0.0000017988  0.000031  0.000176  0.000128  0.000003
 11   -924.67580944   0.0000000810  0.000045  0.000102  0.000091  0.000002
 12   -924.67580958  -0.0000001370  0.000005  0.000015  0.000021  0.000001
 13   -924.67580958   0.0000000014  0.000007  0.000010  0.000012  0.000000
                  ***Gradient check signals convergence***
              ***Rediagonalizing the Fockian in SOSCF/NRSCF***

               *****************************************************
               *                     SUCCESS                       *
               *           SCF CONVERGED AFTER  14 CYCLES          *
               *****************************************************

Setting up the final grid:

General Integration Accuracy     IntAcc      ...  4.670
Radial Grid Type                 RadialGrid  ... Gauss-Chebyshev
Angular Grid (max. acc.)         AngularGrid ... Lebedev-302
Angular grid pruning method      GridPruning ... 3 (G Style)
Weight generation scheme         WeightScheme... Becke
Basis function cutoff            BFCut       ...    1.0000e-11
Integration weight cutoff        WCut        ...    1.0000e-14
Grids for H and He will be reduced by one unit

# of grid points (after initial pruning)     ... 210180 (   0.0 sec)
# of grid points (after weights+screening)   ... 181674 (   0.2 sec)
nearest neighbour list constructed           ...    0.0 sec
Grid point re-assignment to atoms done       ...    0.0 sec
Grid point division into batches done        ...    0.6 sec
Reduced shell lists constructed in    0.7 sec

Total number of grid points                  ...   181674
Total number of batches                      ...     2862
Average number of points per batch           ...       63
Average number of grid points per atom       ...     4326
Average number of shells per batch           ...    95.11 (52.84%)
Average number of basis functions per batch  ...   197.03 (52.96%)
Average number of large shells per batch     ...    61.21 (64.36%)
Average number of large basis fcns per batch ...   131.77 (66.88%)
Maximum spatial batch extension              ...  13.48,  5.43,  6.14 au
Average spatial batch extension              ...   0.06,  0.05,  0.05 au

Final grid set up in    0.9 sec
Final integration                            ... done (   0.2 sec)
Change in XC energy                          ...    -0.001728713
Integrated number of electrons               ...   161.999966649
Previous integrated no of electrons          ...   161.992024153

----------------
TOTAL SCF ENERGY
----------------

Total Energy       :         -924.67753830 Eh          -25161.75502 eV

Components:
Nuclear Repulsion  :         1797.45922647 Eh           48911.35216 eV
Electronic Energy  :        -2722.13676476 Eh          -74073.10717 eV
One Electron Energy:        -4820.69980374 Eh         -131177.91062 eV
Two Electron Energy:         2098.56303897 Eh           57104.80344 eV

Virial components:
Potential Energy   :        -1843.83744716 Eh          -50173.36770 eV
Kinetic Energy     :          919.15990886 Eh           25011.61269 eV
Virial Ratio       :            2.00600290


DFT components:
N(Alpha)           :       80.999983324650 electrons
N(Beta)            :       80.999983324650 electrons
N(Total)           :      161.999966649299 electrons
E(X)               :     -103.887339530026 Eh       
E(C)               :       -6.399105418844 Eh       
E(XC)              :     -110.286444948870 Eh       
DFET-embed. en.    :        0.000000000000 Eh       

---------------
SCF CONVERGENCE
---------------

  Last Energy change         ...   -4.8897e-09  Tolerance :   1.0000e-08
  Last MAX-Density change    ...    2.6138e-06  Tolerance :   1.0000e-07
  Last RMS-Density change    ...    5.8344e-08  Tolerance :   5.0000e-09
  Last Orbital Gradient      ...    5.4055e-07  Tolerance :   1.0000e-05
  Last Orbital Rotation      ...    2.6621e-06  Tolerance :   1.0000e-05

             **** THE GBW FILE WAS UPDATED (dummy3.gbw) ****
             **** DENSITY FILE WAS UPDATED (dummy3.scfp) ****
             **** ENERGY FILE WAS UPDATED (dummy3.en.tmp) ****
             **** THE GBW FILE WAS UPDATED (dummy3.gbw) ****
             **** DENSITY FILE WAS UPDATED (dummy3.scfp) ****
----------------
ORBITAL ENERGIES
----------------

  NO   OCC          E(Eh)            E(eV) 
   0   2.0000     -10.194015      -277.3932 
   1   2.0000     -10.193959      -277.3917 
   2   2.0000     -10.193546      -277.3805 
   3   2.0000     -10.193421      -277.3771 
   4   2.0000     -10.193324      -277.3744 
   5   2.0000     -10.193232      -277.3720 
   6   2.0000     -10.181624      -277.0561 
   7   2.0000     -10.181613      -277.0558 
   8   2.0000     -10.181120      -277.0424 
   9   2.0000     -10.181086      -277.0414 
  10   2.0000     -10.180893      -277.0362 
  11   2.0000     -10.180647      -277.0295 
  12   2.0000     -10.180374      -277.0221 
  13   2.0000     -10.180350      -277.0214 
  14   2.0000     -10.180347      -277.0213 
  15   2.0000     -10.180103      -277.0147 
  16   2.0000     -10.179912      -277.0095 
  17   2.0000     -10.179860      -277.0081 
  18   2.0000     -10.179322      -276.9934 
  19   2.0000     -10.179228      -276.9909 
  20   2.0000     -10.177456      -276.9426 
  21   2.0000     -10.177277      -276.9378 
  22   2.0000     -10.177249      -276.9370 
  23   2.0000     -10.177153      -276.9344 
  24   2.0000      -0.869946       -23.6724 
  25   2.0000      -0.860033       -23.4027 
  26   2.0000      -0.845734       -23.0136 
  27   2.0000      -0.832637       -22.6572 
  28   2.0000      -0.784744       -21.3540 
  29   2.0000      -0.757262       -20.6062 
  30   2.0000      -0.747793       -20.3485 
  31   2.0000      -0.742323       -20.1996 
  32   2.0000      -0.735682       -20.0189 
  33   2.0000      -0.732170       -19.9234 
  34   2.0000      -0.725687       -19.7470 
  35   2.0000      -0.696278       -18.9467 
  36   2.0000      -0.630834       -17.1659 
  37   2.0000      -0.619810       -16.8659 
  38   2.0000      -0.603946       -16.4342 
  39   2.0000      -0.603938       -16.4340 
  40   2.0000      -0.584248       -15.8982 
  41   2.0000      -0.579189       -15.7605 
  42   2.0000      -0.570178       -15.5153 
  43   2.0000      -0.563933       -15.3454 
  44   2.0000      -0.528871       -14.3913 
  45   2.0000      -0.517752       -14.0887 
  46   2.0000      -0.498424       -13.5628 
  47   2.0000      -0.477546       -12.9947 
  48   2.0000      -0.477160       -12.9842 
  49   2.0000      -0.463694       -12.6178 
  50   2.0000      -0.445843       -12.1320 
  51   2.0000      -0.444252       -12.0887 
  52   2.0000      -0.438170       -11.9232 
  53   2.0000      -0.429608       -11.6902 
  54   2.0000      -0.424920       -11.5627 
  55   2.0000      -0.421007       -11.4562 
  56   2.0000      -0.416872       -11.3437 
  57   2.0000      -0.415730       -11.3126 
  58   2.0000      -0.415239       -11.2992 
  59   2.0000      -0.408497       -11.1158 
  60   2.0000      -0.405727       -11.0404 
  61   2.0000      -0.394604       -10.7377 
  62   2.0000      -0.385860       -10.4998 
  63   2.0000      -0.375824       -10.2267 
  64   2.0000      -0.371375       -10.1056 
  65   2.0000      -0.352125        -9.5818 
  66   2.0000      -0.340025        -9.2526 
  67   2.0000      -0.338062        -9.1991 
  68   2.0000      -0.334274        -9.0961 
  69   2.0000      -0.327678        -8.9166 
  70   2.0000      -0.324345        -8.8259 
  71   2.0000      -0.324121        -8.8198 
  72   2.0000      -0.317533        -8.6405 
  73   2.0000      -0.282440        -7.6856 
  74   2.0000      -0.253188        -6.8896 
  75   2.0000      -0.250622        -6.8198 
  76   2.0000      -0.246647        -6.7116 
  77   2.0000      -0.240064        -6.5325 
  78   2.0000      -0.237629        -6.4662 
  79   2.0000      -0.214678        -5.8417 
  80   2.0000      -0.183153        -4.9838 
  81   0.0000      -0.052189        -1.4201 
  82   0.0000      -0.023522        -0.6401 
  83   0.0000      -0.010715        -0.2916 
  84   0.0000      -0.001672        -0.0455 
  85   0.0000       0.011663         0.3174 
  86   0.0000       0.014114         0.3841 
  87   0.0000       0.022994         0.6257 
  88   0.0000       0.029930         0.8144 
  89   0.0000       0.089979         2.4485 
  90   0.0000       0.092159         2.5078 
  91   0.0000       0.093330         2.5396 
  92   0.0000       0.114970         3.1285 
  93   0.0000       0.117146         3.1877 
  94   0.0000       0.117947         3.2095 
  95   0.0000       0.128429         3.4947 
  96   0.0000       0.133255         3.6260 
  97   0.0000       0.140263         3.8167 
  98   0.0000       0.144772         3.9395 
  99   0.0000       0.147875         4.0239 
 100   0.0000       0.150516         4.0957 
 101   0.0000       0.166035         4.5180 
 102   0.0000       0.168395         4.5823 
 103   0.0000       0.178256         4.8506 
 104   0.0000       0.181469         4.9380 
 105   0.0000       0.191591         5.2135 
 106   0.0000       0.198180         5.3927 
 107   0.0000       0.214526         5.8376 
 108   0.0000       0.229356         6.2411 
 109   0.0000       0.234623         6.3844 
 110   0.0000       0.254553         6.9268 
 111   0.0000       0.260657         7.0928 
 112   0.0000       0.268270         7.3000 
 113   0.0000       0.271755         7.3948 
 114   0.0000       0.279551         7.6070 
 115   0.0000       0.280828         7.6417 
 116   0.0000       0.289092         7.8666 
 117   0.0000       0.291531         7.9330 
 118   0.0000       0.302590         8.2339 
 119   0.0000       0.304679         8.2907 
 120   0.0000       0.322206         8.7677 
 121   0.0000       0.340427         9.2635 
 122   0.0000       0.345737         9.4080 
 123   0.0000       0.363263         9.8849 
 124   0.0000       0.366962         9.9855 
 125   0.0000       0.368282        10.0215 
 126   0.0000       0.383723        10.4416 
 127   0.0000       0.385897        10.5008 
 128   0.0000       0.393807        10.7160 
 129   0.0000       0.428867        11.6701 
 130   0.0000       0.456467        12.4211 
 131   0.0000       0.485431        13.2093 
 132   0.0000       0.499502        13.5921 
 133   0.0000       0.500204        13.6112 
 134   0.0000       0.508735        13.8434 
 135   0.0000       0.524946        14.2845 
 136   0.0000       0.528496        14.3811 
 137   0.0000       0.533356        14.5133 
 138   0.0000       0.544474        14.8159 
 139   0.0000       0.545929        14.8555 
 140   0.0000       0.549385        14.9495 
 141   0.0000       0.550883        14.9903 
 142   0.0000       0.557096        15.1594 
 143   0.0000       0.557335        15.1659 
 144   0.0000       0.573089        15.5946 
 145   0.0000       0.575943        15.6722 
 146   0.0000       0.576938        15.6993 
 147   0.0000       0.582638        15.8544 
 148   0.0000       0.585862        15.9421 
 149   0.0000       0.586520        15.9600 
 150   0.0000       0.589689        16.0463 
 151   0.0000       0.590184        16.0597 
 152   0.0000       0.598685        16.2910 
 153   0.0000       0.603912        16.4333 
 154   0.0000       0.604710        16.4550 
 155   0.0000       0.606581        16.5059 
 156   0.0000       0.608688        16.5633 
 157   0.0000       0.610627        16.6160 
 158   0.0000       0.612868        16.6770 
 159   0.0000       0.617304        16.7977 
 160   0.0000       0.625359        17.0169 
 161   0.0000       0.626439        17.0463 
 162   0.0000       0.629768        17.1369 
 163   0.0000       0.629992        17.1429 
 164   0.0000       0.633230        17.2311 
 165   0.0000       0.636255        17.3134 
 166   0.0000       0.638319        17.3696 
 167   0.0000       0.648839        17.6558 
 168   0.0000       0.651567        17.7300 
 169   0.0000       0.659118        17.9355 
 170   0.0000       0.663440        18.0531 
 171   0.0000       0.666994        18.1498 
 172   0.0000       0.667734        18.1700 
 173   0.0000       0.677133        18.4257 
 174   0.0000       0.686938        18.6925 
 175   0.0000       0.688008        18.7216 
 176   0.0000       0.698086        18.9959 
 177   0.0000       0.701442        19.0872 
 178   0.0000       0.711954        19.3732 
 179   0.0000       0.714745        19.4492 
 180   0.0000       0.745234        20.2789 
 181   0.0000       0.755905        20.5692 
 182   0.0000       0.774282        21.0693 
 183   0.0000       0.790068        21.4989 
 184   0.0000       0.823227        22.4011 
 185   0.0000       0.825151        22.4535 
 186   0.0000       0.830052        22.5869 
 187   0.0000       0.833437        22.6790 
 188   0.0000       0.835633        22.7387 
 189   0.0000       0.840530        22.8720 
 190   0.0000       0.842560        22.9272 
 191   0.0000       0.847773        23.0691 
 192   0.0000       0.852657        23.2020 
 193   0.0000       0.853472        23.2242 
 194   0.0000       0.870747        23.6942 
 195   0.0000       0.871376        23.7114 
 196   0.0000       0.877626        23.8814 
 197   0.0000       0.880926        23.9712 
 198   0.0000       0.894330        24.3360 
 199   0.0000       0.903997        24.5990 
 200   0.0000       0.910939        24.7879 
 201   0.0000       0.912881        24.8407 
 202   0.0000       0.915967        24.9247 
 203   0.0000       0.924995        25.1704 
 204   0.0000       0.926372        25.2079 
 205   0.0000       0.934465        25.4281 
 206   0.0000       0.936380        25.4802 
 207   0.0000       0.937645        25.5146 
 208   0.0000       0.942818        25.6554 
 209   0.0000       0.946306        25.7503 
 210   0.0000       0.955096        25.9895 
 211   0.0000       0.958684        26.0871 
 212   0.0000       0.969929        26.3931 
 213   0.0000       0.991438        26.9784 
 214   0.0000       1.005973        27.3739 
 215   0.0000       1.010519        27.4976 
 216   0.0000       1.021287        27.7906 
 217   0.0000       1.025066        27.8935 
 218   0.0000       1.027151        27.9502 
 219   0.0000       1.031435        28.0668 
 220   0.0000       1.036214        28.1968 
 221   0.0000       1.058850        28.8128 
 222   0.0000       1.062859        28.9219 
 223   0.0000       1.071464        29.1560 
 224   0.0000       1.082024        29.4434 
 225   0.0000       1.090785        29.6818 
 226   0.0000       1.099238        29.9118 
 227   0.0000       1.124854        30.6088 
 228   0.0000       1.154416        31.4133 
 229   0.0000       1.161931        31.6178 
 230   0.0000       1.162183        31.6246 
 231   0.0000       1.184377        32.2285 
 232   0.0000       1.192036        32.4370 
 233   0.0000       1.196777        32.5660 
 234   0.0000       1.209891        32.9228 
 235   0.0000       1.218538        33.1581 
 236   0.0000       1.229468        33.4555 
 237   0.0000       1.239806        33.7368 
 238   0.0000       1.259954        34.2851 
 239   0.0000       1.263773        34.3890 
 240   0.0000       1.288966        35.0746 
 241   0.0000       1.304364        35.4936 
 242   0.0000       1.344909        36.5968 
 243   0.0000       1.349866        36.7317 
 244   0.0000       1.362891        37.0861 
 245   0.0000       1.374468        37.4012 
 246   0.0000       1.383938        37.6589 
 247   0.0000       1.395762        37.9806 
 248   0.0000       1.411026        38.3960 
 249   0.0000       1.413929        38.4750 
 250   0.0000       1.441311        39.2201 
 251   0.0000       1.453485        39.5513 
 252   0.0000       1.463087        39.8126 
 253   0.0000       1.469208        39.9792 
 254   0.0000       1.486418        40.4475 
 255   0.0000       1.494479        40.6668 
 256   0.0000       1.502797        40.8932 
 257   0.0000       1.504366        40.9359 
 258   0.0000       1.514146        41.2020 
 259   0.0000       1.521486        41.4017 
 260   0.0000       1.527350        41.5613 
 261   0.0000       1.530191        41.6386 
 262   0.0000       1.532148        41.6919 
 263   0.0000       1.575073        42.8599 
 264   0.0000       1.597539        43.4713 
 265   0.0000       1.600474        43.5511 
 266   0.0000       1.628560        44.3154 
 267   0.0000       1.631574        44.3974 
 268   0.0000       1.649192        44.8768 
 269   0.0000       1.661149        45.2022 
 270   0.0000       1.662414        45.2366 
 271   0.0000       1.678219        45.6667 
 272   0.0000       1.731305        47.1112 
 273   0.0000       1.760211        47.8978 
 274   0.0000       1.795095        48.8470 
 275   0.0000       1.805762        49.1373 
 276   0.0000       1.807704        49.1901 
 277   0.0000       1.815855        49.4119 
 278   0.0000       1.833782        49.8998 
 279   0.0000       1.855053        50.4786 
 280   0.0000       1.855291        50.4850 
 281   0.0000       1.859562        50.6013 
 282   0.0000       1.861296        50.6484 
 283   0.0000       1.879113        51.1333 
 284   0.0000       1.889729        51.4221 
 285   0.0000       1.902135        51.7597 
 286   0.0000       1.903622        51.8002 
 287   0.0000       1.939870        52.7866 
 288   0.0000       1.984558        54.0026 
 289   0.0000       1.992517        54.2192 
 290   0.0000       1.996394        54.3246 
 291   0.0000       1.999288        54.4034 
 292   0.0000       2.001820        54.4723 
 293   0.0000       2.007942        54.6389 
 294   0.0000       2.012226        54.7554 
 295   0.0000       2.014625        54.8207 
 296   0.0000       2.023906        55.0733 
 297   0.0000       2.032531        55.3080 
 298   0.0000       2.037500        55.4432 
 299   0.0000       2.044085        55.6224 
 300   0.0000       2.071547        56.3697 
 301   0.0000       2.087261        56.7973 
 302   0.0000       2.096695        57.0540 
 303   0.0000       2.100533        57.1584 
 304   0.0000       2.106047        57.3084 
 305   0.0000       2.109361        57.3986 
 306   0.0000       2.126286        57.8592 
 307   0.0000       2.150492        58.5178 
 308   0.0000       2.168941        59.0199 
 309   0.0000       2.178133        59.2700 
 310   0.0000       2.179809        59.3156 
 311   0.0000       2.190632        59.6101 
 312   0.0000       2.209141        60.1138 
 313   0.0000       2.211722        60.1840 
 314   0.0000       2.215562        60.2885 
 315   0.0000       2.225141        60.5492 
 316   0.0000       2.234817        60.8125 
 317   0.0000       2.247855        61.1673 
 318   0.0000       2.248964        61.1974 
 319   0.0000       2.269617        61.7594 
 320   0.0000       2.290242        62.3207 
 321   0.0000       2.300994        62.6132 
 322   0.0000       2.307266        62.7839 
 323   0.0000       2.348833        63.9150 
 324   0.0000       2.355446        64.0949 
 325   0.0000       2.380728        64.7829 
 326   0.0000       2.381667        64.8085 
 327   0.0000       2.383840        64.8676 
 328   0.0000       2.395490        65.1846 
 329   0.0000       2.436259        66.2940 
 330   0.0000       2.463390        67.0323 
 331   0.0000       2.493248        67.8447 
 332   0.0000       2.496510        67.9335 
 333   0.0000       2.514522        68.4236 
 334   0.0000       2.529251        68.8244 
 335   0.0000       2.553648        69.4883 
 336   0.0000       2.575327        70.0782 
 337   0.0000       2.579102        70.1809 
 338   0.0000       2.581257        70.2396 
 339   0.0000       2.590870        70.5012 
 340   0.0000       2.607344        70.9494 
 341   0.0000       2.618269        71.2467 
 342   0.0000       2.634633        71.6920 
 343   0.0000       2.635701        71.7211 
 344   0.0000       2.649665        72.1010 
 345   0.0000       2.662839        72.4595 
 346   0.0000       2.675135        72.7941 
 347   0.0000       2.705447        73.6190 
 348   0.0000       2.709530        73.7300 
 349   0.0000       2.726415        74.1895 
 350   0.0000       2.746761        74.7432 
 351   0.0000       2.747196        74.7550 
 352   0.0000       2.762136        75.1615 
 353   0.0000       2.763620        75.2019 
 354   0.0000       2.776199        75.5442 
 355   0.0000       2.777059        75.5676 
 356   0.0000       2.782466        75.7147 
 357   0.0000       2.783169        75.7339 
 358   0.0000       2.807624        76.3993 
 359   0.0000       2.834978        77.1437 
 360   0.0000       2.870005        78.0968 
 361   0.0000       2.874349        78.2150 
 362   0.0000       2.903530        79.0091 
 363   0.0000       2.925814        79.6154 
 364   0.0000       2.975492        80.9672 
 365   0.0000       3.070178        83.5438 
 366   0.0000       3.154273        85.8321 
 367   0.0000       3.212922        87.4280 
 368   0.0000       3.248682        88.4011 
 369   0.0000       3.306534        89.9754 
 370   0.0000       3.378934        91.9455 
 371   0.0000       3.433315        93.4252 

                    ********************************
                    * MULLIKEN POPULATION ANALYSIS *
                    ********************************

-----------------------
MULLIKEN ATOMIC CHARGES
-----------------------
   0 C :    0.091133
   1 C :    0.086976
   2 C :   -0.157570
   3 C :   -0.167140
   4 C :    0.090700
   5 C :    0.086268
   6 C :   -0.182709
   7 C :   -0.130172
   8 C :   -0.122583
   9 C :   -0.126987
  10 C :   -0.163810
  11 C :   -0.186097
  12 C :   -0.189096
  13 C :   -0.160090
  14 C :   -0.162115
  15 C :    0.087395
  16 C :    0.085282
  17 C :   -0.185367
  18 C :   -0.131836
  19 C :   -0.121575
  20 C :   -0.130062
  21 C :   -0.159620
  22 C :   -0.186857
  23 C :   -0.189548
  24 H :    0.127703
  25 H :    0.129349
  26 H :    0.129285
  27 H :    0.125646
  28 H :    0.124364
  29 H :    0.125897
  30 H :    0.133495
  31 H :    0.133887
  32 H :    0.128210
  33 H :    0.128553
  34 H :    0.130334
  35 H :    0.125420
  36 H :    0.125163
  37 H :    0.125803
  38 H :    0.134612
  39 H :    0.131324
  40 H :    0.132246
  41 H :    0.134186
Sum of atomic charges:   -0.0000000

--------------------------------
MULLIKEN REDUCED ORBITAL CHARGES
--------------------------------
  0 C s       :     3.141580  s :     3.141580
      pz      :     0.870736  p :     2.725637
      px      :     0.954697
      py      :     0.900204
      dz2     :     0.009830  d :     0.041650
      dxz     :     0.006451
      dyz     :     0.012080
      dx2y2   :     0.005943
      dxy     :     0.007347
  1 C s       :     3.142683  s :     3.142683
      pz      :     0.871121  p :     2.728669
      px      :     0.959237
      py      :     0.898312
      dz2     :     0.009886  d :     0.041673
      dxz     :     0.008281
      dyz     :     0.010345
      dx2y2   :     0.007208
      dxy     :     0.005952
  2 C s       :     3.192826  s :     3.192826
      pz      :     0.969779  p :     2.927980
      px      :     0.973869
      py      :     0.984333
      dz2     :     0.008517  d :     0.036764
      dxz     :     0.008830
      dyz     :     0.008543
      dx2y2   :     0.005669
      dxy     :     0.005204
  3 C s       :     3.193572  s :     3.193572
      pz      :     0.974000  p :     2.936852
      px      :     0.972883
      py      :     0.989969
      dz2     :     0.008766  d :     0.036716
      dxz     :     0.012506
      dyz     :     0.004417
      dx2y2   :     0.005805
      dxy     :     0.005222
  4 C s       :     3.139542  s :     3.139542
      pz      :     0.871244  p :     2.728291
      px      :     0.886387
      py      :     0.970661
      dz2     :     0.009824  d :     0.041466
      dxz     :     0.012265
      dyz     :     0.006145
      dx2y2   :     0.006746
      dxy     :     0.006486
  5 C s       :     3.147156  s :     3.147156
      pz      :     0.864476  p :     2.724778
      px      :     0.900494
      py      :     0.959808
      dz2     :     0.010189  d :     0.041798
      dxz     :     0.012135
      dyz     :     0.006879
      dx2y2   :     0.006814
      dxy     :     0.005781
  6 C s       :     3.195266  s :     3.195266
      pz      :     0.979936  p :     2.951642
      px      :     0.977174
      py      :     0.994532
      dz2     :     0.009274  d :     0.035801
      dxz     :     0.008136
      dyz     :     0.007424
      dx2y2   :     0.005663
      dxy     :     0.005304
  7 C s       :     3.195964  s :     3.195964
      pz      :     0.957232  p :     2.897670
      px      :     0.987904
      py      :     0.952534
      dz2     :     0.008957  d :     0.036538
      dxz     :     0.008810
      dyz     :     0.007400
      dx2y2   :     0.006139
      dxy     :     0.005232
  8 C s       :     3.191514  s :     3.191514
      pz      :     0.937614  p :     2.895734
      px      :     0.962222
      py      :     0.995899
      dz2     :     0.010057  d :     0.035334
      dxz     :     0.006673
      dyz     :     0.008957
      dx2y2   :     0.002419
      dxy     :     0.007228
  9 C s       :     3.194748  s :     3.194748
      pz      :     0.966633  p :     2.895533
      px      :     0.970664
      py      :     0.958237
      dz2     :     0.010064  d :     0.036705
      dxz     :     0.006574
      dyz     :     0.009166
      dx2y2   :     0.005803
      dxy     :     0.005099
 10 C s       :     3.186949  s :     3.186949
      pz      :     0.973277  p :     2.940601
      px      :     0.972670
      py      :     0.994654
      dz2     :     0.009096  d :     0.036260
      dxz     :     0.010988
      dyz     :     0.006209
      dx2y2   :     0.005311
      dxy     :     0.004657
 11 C s       :     3.204571  s :     3.204571
      pz      :     0.983967  p :     2.945347
      px      :     0.965599
      py      :     0.995781
      dz2     :     0.007771  d :     0.036179
      dxz     :     0.009598
      dyz     :     0.006721
      dx2y2   :     0.005808
      dxy     :     0.006282
 12 C s       :     3.204634  s :     3.204634
      pz      :     0.983382  p :     2.948291
      px      :     0.977501
      py      :     0.987408
      dz2     :     0.008094  d :     0.036172
      dxz     :     0.010535
      dyz     :     0.005330
      dx2y2   :     0.006780
      dxy     :     0.005433
 13 C s       :     3.192215  s :     3.192215
      pz      :     0.972254  p :     2.931102
      px      :     0.992221
      py      :     0.966628
      dz2     :     0.008471  d :     0.036773
      dxz     :     0.003804
      dyz     :     0.013520
      dx2y2   :     0.005136
      dxy     :     0.005843
 14 C s       :     3.194748  s :     3.194748
      pz      :     0.972126  p :     2.930665
      px      :     0.992420
      py      :     0.966120
      dz2     :     0.008575  d :     0.036701
      dxz     :     0.005668
      dyz     :     0.011413
      dx2y2   :     0.005122
      dxy     :     0.005924
 15 C s       :     3.141335  s :     3.141335
      pz      :     0.874046  p :     2.729744
      px      :     0.920485
      py      :     0.935213
      dz2     :     0.009813  d :     0.041526
      dxz     :     0.008336
      dyz     :     0.010082
      dx2y2   :     0.006368
      dxy     :     0.006927
 16 C s       :     3.148134  s :     3.148134
      pz      :     0.867650  p :     2.724754
      px      :     0.918727
      py      :     0.938377
      dz2     :     0.010144  d :     0.041829
      dxz     :     0.010995
      dyz     :     0.007889
      dx2y2   :     0.005952
      dxy     :     0.006850
 17 C s       :     3.193624  s :     3.193624
      pz      :     0.983320  p :     2.955987
      px      :     0.966545
      py      :     1.006122
      dz2     :     0.008813  d :     0.035756
      dxz     :     0.012334
      dyz     :     0.003388
      dx2y2   :     0.005477
      dxy     :     0.005744
 18 C s       :     3.196193  s :     3.196193
      pz      :     0.957910  p :     2.899150
      px      :     0.946107
      py      :     0.995133
      dz2     :     0.008653  d :     0.036493
      dxz     :     0.012255
      dyz     :     0.003832
      dx2y2   :     0.005276
      dxy     :     0.006477
 19 C s       :     3.187494  s :     3.187494
      pz      :     0.939728  p :     2.898747
      px      :     0.962035
      py      :     0.996984
      dz2     :     0.009997  d :     0.035334
      dxz     :     0.009765
      dyz     :     0.005649
      dx2y2   :     0.007374
      dxy     :     0.002548
 20 C s       :     3.192777  s :     3.192777
      pz      :     0.970621  p :     2.900570
      px      :     0.942048
      py      :     0.987900
      dz2     :     0.009602  d :     0.036715
      dxz     :     0.012683
      dyz     :     0.003495
      dx2y2   :     0.005144
      dxy     :     0.005790
 21 C s       :     3.186621  s :     3.186621
      pz      :     0.973213  p :     2.936678
      px      :     0.969848
      py      :     0.993616
      dz2     :     0.008897  d :     0.036321
      dxz     :     0.012908
      dyz     :     0.004356
      dx2y2   :     0.004653
      dxy     :     0.005508
 22 C s       :     3.204139  s :     3.204139
      pz      :     0.986028  p :     2.946536
      px      :     0.993193
      py      :     0.967316
      dz2     :     0.007713  d :     0.036182
      dxz     :     0.003984
      dyz     :     0.012231
      dx2y2   :     0.006218
      dxy     :     0.006036
 23 C s       :     3.206285  s :     3.206285
      pz      :     0.981774  p :     2.947100
      px      :     1.003597
      py      :     0.961730
      dz2     :     0.007876  d :     0.036162
      dxz     :     0.004524
      dyz     :     0.011450
      dx2y2   :     0.005444
      dxy     :     0.006868
 24 H s       :     0.872297  s :     0.872297
 25 H s       :     0.870651  s :     0.870651
 26 H s       :     0.870715  s :     0.870715
 27 H s       :     0.874354  s :     0.874354
 28 H s       :     0.875636  s :     0.875636
[...]
      dxy     :     0.005383
 21 C s       :     3.195843  s :     3.195843
      pz      :     0.983802  p :     2.936342
      px      :     0.990658
      py      :     0.961882
      dz2     :     0.007809  d :     0.035816
      dxz     :     0.006581
      dyz     :     0.010253
      dx2y2   :     0.005219
      dxy     :     0.005954
 22 C s       :     3.203542  s :     3.203542
      pz      :     0.978434  p :     2.936204
      px      :     0.993729
      py      :     0.964041
      dz2     :     0.008034  d :     0.036088
      dxz     :     0.006525
      dyz     :     0.010119
      dx2y2   :     0.005437
      dxy     :     0.005973
 23 C s       :     3.200885  s :     3.200885
      pz      :     0.981209  p :     2.941781
      px      :     0.988421
      py      :     0.972152
      dz2     :     0.007929  d :     0.036100
      dxz     :     0.004389
      dyz     :     0.012461
      dx2y2   :     0.006055
      dxy     :     0.005267
 24 H s       :     0.869002  s :     0.869002
 25 H s       :     0.871241  s :     0.871241
 26 H s       :     0.872680  s :     0.872680
 27 H s       :     0.870476  s :     0.870476
 28 H s       :     0.872861  s :     0.872861
 29 H s       :     0.869935  s :     0.869935
 30 H s       :     0.868673  s :     0.868673
 31 H s       :     0.871617  s :     0.871617
 32 H s       :     0.871721  s :     0.871721
 33 H s       :     0.868551  s :     0.868551
 34 H s       :     0.870079  s :     0.870079
 35 H s       :     0.872594  s :     0.872594
 36 H s       :     0.870755  s :     0.870755
 37 H s       :     0.872543  s :     0.872543
 38 H s       :     0.871358  s :     0.871358
 39 H s       :     0.868886  s :     0.868886
 40 H s       :     0.872486  s :     0.872486
 41 H s       :     0.872481  s :     0.872481


                     *******************************
                     * LOEWDIN POPULATION ANALYSIS *
                     *******************************

----------------------
LOEWDIN ATOMIC CHARGES
----------------------
   0 C :   -0.015720
   1 C :   -0.015762
   2 C :   -0.125843
   3 C :   -0.125476
   4 C :   -0.015067
   5 C :   -0.014692
   6 C :   -0.127026
   7 C :   -0.128167
   8 C :   -0.130662
   9 C :   -0.127724
  10 C :   -0.127576
  11 C :   -0.125882
  12 C :   -0.125409
  13 C :   -0.125319
  14 C :   -0.125969
  15 C :   -0.015013
  16 C :   -0.014745
  17 C :   -0.127496
  18 C :   -0.127785
  19 C :   -0.130618
  20 C :   -0.128088
  21 C :   -0.127135
  22 C :   -0.125386
  23 C :   -0.125922
  24 H :    0.132938
  25 H :    0.132793
  26 H :    0.131782
  27 H :    0.131429
  28 H :    0.131073
  29 H :    0.132130
  30 H :    0.133099
  31 H :    0.132629
  32 H :    0.132596
  33 H :    0.133132
  34 H :    0.132090
  35 H :    0.131122
  36 H :    0.131360
  37 H :    0.131818
  38 H :    0.132759
  39 H :    0.132970
  40 H :    0.131378
  41 H :    0.131386

-------------------------------
LOEWDIN REDUCED ORBITAL CHARGES
-------------------------------
  0 C s       :     2.868787  s :     2.868787
      pz      :     1.054681  p :     3.044903
      px      :     0.977717
      py      :     1.012504
      dz2     :     0.027212  d :     0.102030
      dxz     :     0.016379
      dyz     :     0.029547
      dx2y2   :     0.014394
      dxy     :     0.014498
  1 C s       :     2.868781  s :     2.868781
      pz      :     1.054973  p :     3.044956
      px      :     0.978116
      py      :     1.011866
      dz2     :     0.027267  d :     0.102025
      dxz     :     0.016474
      dyz     :     0.029504
      dx2y2   :     0.014288
      dxy     :     0.014492
  2 C s       :     2.915922  s :     2.915922
      pz      :     1.057188  p :     3.125262
      px      :     1.009564
      py      :     1.058509
      dz2     :     0.018800  d :     0.084659
      dxz     :     0.009895
      dyz     :     0.028496
      dx2y2   :     0.013963
      dxy     :     0.013505
  3 C s       :     2.915965  s :     2.915965
      pz      :     1.056694  p :     3.124846
      px      :     1.013398
      py      :     1.054754
      dz2     :     0.018698  d :     0.084666
      dxz     :     0.012924
      dyz     :     0.025927
      dx2y2   :     0.013209
      dxy     :     0.013907
  4 C s       :     2.869264  s :     2.869264
      pz      :     1.054914  p :     3.043986
      px      :     0.977168
      py      :     1.011903
      dz2     :     0.027242  d :     0.101817
      dxz     :     0.016452
      dyz     :     0.029487
      dx2y2   :     0.014225
      dxy     :     0.014410
  5 C s       :     2.869444  s :     2.869444
      pz      :     1.053492  p :     3.043457
      px      :     0.977693
      py      :     1.012272
      dz2     :     0.027134  d :     0.101791
      dxz     :     0.016406
      dyz     :     0.029114
      dx2y2   :     0.014503
      dxy     :     0.014634
  6 C s       :     2.917292  s :     2.917292
      pz      :     1.056082  p :     3.125849
      px      :     1.014329
      py      :     1.055438
      dz2     :     0.018445  d :     0.083885
      dxz     :     0.012516
      dyz     :     0.025707
      dx2y2   :     0.013291
      dxy     :     0.013926
  7 C s       :     2.917345  s :     2.917345
      pz      :     1.062120  p :     3.125256
      px      :     1.002880
      py      :     1.060256
      dz2     :     0.019329  d :     0.085565
      dxz     :     0.010429
      dyz     :     0.028489
      dx2y2   :     0.013908
      dxy     :     0.013411
  8 C s       :     2.918279  s :     2.918279
      pz      :     1.063145  p :     3.127509
      px      :     1.005312
      py      :     1.059052
      dz2     :     0.026504  d :     0.084874
      dxz     :     0.015487
      dyz     :     0.022997
      dx2y2   :     0.009595
      dxy     :     0.010290
  9 C s       :     2.917346  s :     2.917346
      pz      :     1.061796  p :     3.124832
      px      :     1.004169
      py      :     1.058867
      dz2     :     0.019434  d :     0.085546
      dxz     :     0.012600
      dyz     :     0.025873
      dx2y2   :     0.013609
      dxy     :     0.014030
 10 C s       :     2.917219  s :     2.917219
      pz      :     1.056042  p :     3.126448
      px      :     1.011973
      py      :     1.058434
      dz2     :     0.018342  d :     0.083908
      dxz     :     0.010005
      dyz     :     0.028622
      dx2y2   :     0.013803
      dxy     :     0.013137
 11 C s       :     2.915926  s :     2.915926
      pz      :     1.057315  p :     3.125251
      px      :     1.009478
      py      :     1.058458
      dz2     :     0.018830  d :     0.084705
      dxz     :     0.009899
      dyz     :     0.028498
      dx2y2   :     0.013962
      dxy     :     0.013516
 12 C s       :     2.915960  s :     2.915960
      pz      :     1.056579  p :     3.124825
      px      :     1.013392
      py      :     1.054853
      dz2     :     0.018676  d :     0.084624
      dxz     :     0.012927
      dyz     :     0.025919
      dx2y2   :     0.013201
      dxy     :     0.013902
 13 C s       :     2.915978  s :     2.915978
      pz      :     1.056710  p :     3.124703
      px      :     1.013045
      py      :     1.054948
      dz2     :     0.018716  d :     0.084639
      dxz     :     0.012686
      dyz     :     0.025719
      dx2y2   :     0.013489
      dxy     :     0.014029
 14 C s       :     2.915929  s :     2.915929
      pz      :     1.056799  p :     3.125342
      px      :     1.009282
      py      :     1.059260
      dz2     :     0.018643  d :     0.084698
      dxz     :     0.009985
      dyz     :     0.028846
      dx2y2   :     0.013910
      dxy     :     0.013314
 15 C s       :     2.869289  s :     2.869289
      pz      :     1.054614  p :     3.043909
      px      :     0.976735
      py      :     1.012560
      dz2     :     0.027185  d :     0.101815
      dxz     :     0.016349
      dyz     :     0.029537
      dx2y2   :     0.014326
      dxy     :     0.014418
 16 C s       :     2.869452  s :     2.869452
      pz      :     1.053798  p :     3.043513
      px      :     0.978144
      py      :     1.011571
      dz2     :     0.027194  d :     0.101780
      dxz     :     0.016517
      dyz     :     0.029053
      dx2y2   :     0.014400
      dxy     :     0.014617
 17 C s       :     2.917224  s :     2.917224
      pz      :     1.056548  p :     3.126361
      px      :     1.012164
      py      :     1.057649
      dz2     :     0.018522  d :     0.083911
      dxz     :     0.009921
      dyz     :     0.028292
      dx2y2   :     0.013843
      dxy     :     0.013333
 18 C s       :     2.917351  s :     2.917351
      pz      :     1.062051  p :     3.124895
      px      :     1.004467
      py      :     1.058376
      dz2     :     0.019384  d :     0.085539
      dxz     :     0.012851
      dyz     :     0.026088
      dx2y2   :     0.013321
      dxy     :     0.013896
 19 C s       :     2.918282  s :     2.918282
      pz      :     1.063312  p :     3.127455
      px      :     1.005566
      py      :     1.058576
      dz2     :     0.026571  d :     0.084881
      dxz     :     0.015617
      dyz     :     0.022917
      dx2y2   :     0.009538
      dxy     :     0.010238
 20 C s       :     2.917342  s :     2.917342
      pz      :     1.062308  p :     3.125172
      px      :     1.003178
      py      :     1.059686
      dz2     :     0.019521  d :     0.085574
      dxz     :     0.010327
      dyz     :     0.028150
      dx2y2   :     0.013960
      dxy     :     0.013615
 21 C s       :     2.917272  s :     2.917272
      pz      :     1.055952  p :     3.125991
      px      :     1.014664
      py      :     1.055374
      dz2     :     0.018402  d :     0.083873
      dxz     :     0.012754
      dyz     :     0.025906
      dx2y2   :     0.013006
      dxy     :     0.013805
 22 C s       :     2.915990  s :     2.915990
      pz      :     1.056819  p :     3.124718
      px      :     1.013062
      py      :     1.054837
      dz2     :     0.018737  d :     0.084678
      dxz     :     0.012677
      dyz     :     0.025727
      dx2y2   :     0.013497
      dxy     :     0.014039
 23 C s       :     2.915926  s :     2.915926
      pz      :     1.056664  p :     3.125343
      px      :     1.009370
      py      :     1.059309
      dz2     :     0.018614  d :     0.084653
      dxz     :     0.009986
      dyz     :     0.028833
      dx2y2   :     0.013916
      dxy     :     0.013304
 24 H s       :     0.867062  s :     0.867062
 25 H s       :     0.867207  s :     0.867207
 26 H s       :     0.868218  s :     0.868218
 27 H s       :     0.868571  s :     0.868571
 28 H s       :     0.868927  s :     0.868927
 29 H s       :     0.867870  s :     0.867870
 30 H s       :     0.866901  s :     0.866901
 31 H s       :     0.867371  s :     0.867371
 32 H s       :     0.867404  s :     0.867404
 33 H s       :     0.866868  s :     0.866868
 34 H s       :     0.867910  s :     0.867910
 35 H s       :     0.868878  s :     0.868878
 36 H s       :     0.868640  s :     0.868640
 37 H s       :     0.868182  s :     0.868182
 38 H s       :     0.867241  s :     0.867241
 39 H s       :     0.867030  s :     0.867030
 40 H s       :     0.868622  s :     0.868622
 41 H s       :     0.868614  s :     0.868614


                      *****************************
                      * MAYER POPULATION ANALYSIS *
                      *****************************

  NA   - Mulliken gross atomic population
  ZA   - Total nuclear charge
  QA   - Mulliken gross atomic charge
  VA   - Mayer's total valence
  BVA  - Mayer's bonded valence
  FA   - Mayer's free valence

  ATOM       NA         ZA         QA         VA         BVA        FA
  0 C      5.9058     6.0000     0.0942     3.9785     3.9785    -0.0000
  1 C      5.9061     6.0000     0.0939     3.9787     3.9787     0.0000
  2 C      6.1786     6.0000    -0.1786     3.9111     3.9111     0.0000
  3 C      6.1761     6.0000    -0.1761     3.9139     3.9139     0.0000
  4 C      5.9072     6.0000     0.0928     3.9788     3.9788    -0.0000
  5 C      5.9127     6.0000     0.0873     3.9895     3.9895    -0.0000
  6 C      6.1676     6.0000    -0.1676     3.9237     3.9237    -0.0000
  7 C      6.1333     6.0000    -0.1333     3.9430     3.9430     0.0000
  8 C      6.1225     6.0000    -0.1225     3.9434     3.9434    -0.0000
  9 C      6.1322     6.0000    -0.1322     3.9452     3.9452    -0.0000
 10 C      6.1704     6.0000    -0.1704     3.9231     3.9231     0.0000
 11 C      6.1786     6.0000    -0.1786     3.9127     3.9127     0.0000
 12 C      6.1759     6.0000    -0.1759     3.9124     3.9124     0.0000
 13 C      6.1757     6.0000    -0.1757     3.9119     3.9119     0.0000
 14 C      6.1788     6.0000    -0.1788     3.9125     3.9125    -0.0000
 15 C      5.9069     6.0000     0.0931     3.9786     3.9786    -0.0000
 16 C      5.9130     6.0000     0.0870     3.9897     3.9897    -0.0000
 17 C      6.1702     6.0000    -0.1702     3.9232     3.9232     0.0000
 18 C      6.1326     6.0000    -0.1326     3.9451     3.9451     0.0000
 19 C      6.1223     6.0000    -0.1223     3.9432     3.9432     0.0000
 20 C      6.1330     6.0000    -0.1330     3.9430     3.9430     0.0000
 21 C      6.1680     6.0000    -0.1680     3.9240     3.9240    -0.0000
 22 C      6.1758     6.0000    -0.1758     3.9135     3.9135     0.0000
 23 C      6.1788     6.0000    -0.1788     3.9109     3.9109    -0.0000
 24 H      0.8690     1.0000     0.1310     0.9421     0.9421    -0.0000
 25 H      0.8712     1.0000     0.1288     0.9429     0.9429     0.0000
 26 H      0.8727     1.0000     0.1273     0.9422     0.9422     0.0000
 27 H      0.8705     1.0000     0.1295     0.9372     0.9372     0.0000
 28 H      0.8729     1.0000     0.1271     0.9379     0.9379     0.0000
 29 H      0.8699     1.0000     0.1301     0.9414     0.9414     0.0000
 30 H      0.8687     1.0000     0.1313     0.9421     0.9421     0.0000
 31 H      0.8716     1.0000     0.1284     0.9429     0.9429     0.0000
 32 H      0.8717     1.0000     0.1283     0.9430     0.9430     0.0000
 33 H      0.8686     1.0000     0.1314     0.9420     0.9420    -0.0000
 34 H      0.8701     1.0000     0.1299     0.9415     0.9415     0.0000
 35 H      0.8726     1.0000     0.1274     0.9379     0.9379    -0.0000
 36 H      0.8708     1.0000     0.1292     0.9372     0.9372     0.0000
 37 H      0.8725     1.0000     0.1275     0.9422     0.9422     0.0000
 38 H      0.8714     1.0000     0.1286     0.9429     0.9429     0.0000
 39 H      0.8689     1.0000     0.1311     0.9420     0.9420    -0.0000
 40 H      0.8725     1.0000     0.1275     0.9372     0.9372     0.0000
 41 H      0.8725     1.0000     0.1275     0.9371     0.9371     0.0000

  Mayer bond orders larger than 0.100000
B(  0-C ,  1-C ) :   1.0176 B(  0-C , 13-C ) :   1.4010 B(  0-C , 23-C ) :   1.3999 
B(  1-C ,  2-C ) :   1.3999 B(  1-C , 12-C ) :   1.4012 B(  2-C ,  3-C ) :   1.4293 
B(  2-C , 24-H ) :   0.9197 B(  3-C ,  4-C ) :   1.4025 B(  3-C , 25-H ) :   0.9198 
B(  4-C ,  5-C ) :   1.0139 B(  4-C , 11-C ) :   1.4015 B(  5-C ,  6-C ) :   1.4104 
B(  5-C , 10-C ) :   1.4095 B(  6-C ,  7-C ) :   1.4417 B(  6-C , 26-H ) :   0.9202 
B(  7-C ,  8-C ) :   1.4462 B(  7-C , 27-H ) :   0.9294 B(  8-C ,  9-C ) :   1.4480 
B(  8-C , 40-H ) :   0.9297 B(  9-C , 10-C ) :   1.4417 B(  9-C , 28-H ) :   0.9298 
B( 10-C , 29-H ) :   0.9201 B( 11-C , 12-C ) :   1.4293 B( 11-C , 30-H ) :   0.9197 
B( 12-C , 31-H ) :   0.9197 B( 13-C , 14-C ) :   1.4291 B( 13-C , 32-H ) :   0.9198 
B( 14-C , 15-C ) :   1.4013 B( 14-C , 33-H ) :   0.9197 B( 15-C , 16-C ) :   1.0139 
B( 15-C , 22-C ) :   1.4024 B( 16-C , 17-C ) :   1.4096 B( 16-C , 21-C ) :   1.4105 
B( 17-C , 18-C ) :   1.4419 B( 17-C , 34-H ) :   0.9201 B( 18-C , 19-C ) :   1.4479 
B( 18-C , 35-H ) :   0.9297 B( 19-C , 20-C ) :   1.4461 B( 19-C , 41-H ) :   0.9298 
B( 20-C , 21-C ) :   1.4417 B( 20-C , 36-H ) :   0.9295 B( 21-C , 37-H ) :   0.9201 
B( 22-C , 23-C ) :   1.4291 B( 22-C , 38-H ) :   0.9199 B( 23-C , 39-H ) :   0.9197 


-------
TIMINGS
-------

Total SCF time: 0 days 0 hours 0 min 9 sec 

Total time                  ....       9.350 sec
Sum of individual times     ....       8.831 sec  ( 94.4%)

Fock matrix formation       ....       7.530 sec  ( 80.5%)
  XC integration            ....       0.382 sec  (  5.1% of F)
    Basis function eval.    ....       0.111 sec  ( 29.1% of XC)
    Density eval.           ....       0.055 sec  ( 14.5% of XC)
    XC-Functional eval.     ....       0.012 sec  (  3.1% of XC)
    XC-Potential eval.      ....       0.071 sec  ( 18.7% of XC)
Diagonalization             ....       0.032 sec  (  0.3%)
Density matrix formation    ....       0.021 sec  (  0.2%)
Population analysis         ....       0.029 sec  (  0.3%)
Initial guess               ....       0.040 sec  (  0.4%)
Orbital Transformation      ....       0.000 sec  (  0.0%)
Orbital Orthonormalization  ....       0.029 sec  (  0.3%)
DIIS solution               ....       0.011 sec  (  0.1%)
SOSCF solution              ....       0.171 sec  (  1.8%)
Grid generation             ....       0.997 sec  ( 10.7%)

-------------------------   --------------------
FINAL SINGLE POINT ENERGY      -924.805008052503
-------------------------   --------------------

                                *** OPTIMIZATION RUN DONE ***

                            ***************************************
                            *     ORCA property calculations      *
                            ***************************************

                                    ---------------------
                                    Active property flags
                                    ---------------------
   (+) Dipole Moment


------------------------------------------------------------------------------
                       ORCA ELECTRIC PROPERTIES CALCULATION
------------------------------------------------------------------------------

Dipole Moment Calculation                       ... on
Quadrupole Moment Calculation                   ... off
Polarizability Calculation                      ... off
GBWName                                         ... dummy3.gbw
Electron density file                           ... dummy3.scfp
The origin for moment calculation is the CENTER OF MASS  = (-1.118583,  0.495646 -0.008601)

-------------
DIPOLE MOMENT
-------------
                                X             Y             Z
Electronic contribution:     -0.00152      -0.00011       0.00316
Nuclear contribution   :      0.00160      -0.00064      -0.00231
                        -----------------------------------------
Total Dipole Moment    :      0.00009      -0.00075       0.00086
                        -----------------------------------------
Magnitude (a.u.)       :      0.00114
Magnitude (Debye)      :      0.00290



--------------------
Rotational spectrum 
--------------------
 
Rotational constants in cm-1:     0.047747     0.002204     0.002126 
Rotational constants in MHz :  1431.428248    66.088251    63.734375 

 Dipole components along the rotational axes: 
x,y,z [a.u.] :    -0.000638     0.000865    -0.000378 
x,y,z [Debye]:    -0.001621     0.002199    -0.000960 

 

Timings for individual modules:

Sum of individual times         ...      457.993 sec (=   7.633 min)
GTO integral calculation        ...       24.182 sec (=   0.403 min)   5.3 %
SCF iterations                  ...      314.077 sec (=   5.235 min)  68.6 %
SCF Gradient evaluation         ...      114.990 sec (=   1.916 min)  25.1 %
Geometry relaxation             ...        4.744 sec (=   0.079 min)   1.0 %
                             ****ORCA TERMINATED NORMALLY****
TOTAL RUN TIME: 0 days 0 hours 7 minutes 43 seconds 77 msec
