
                                 *****************
                                 * O   R   C   A *
                                 *****************

           --- An Ab Initio, DFT and Semiempirical electronic structure package ---

                  #######################################################
                  #                        -***-                        #
                  #          Department of theory and spectroscopy      #
                  #               Directorship: Frank Neese             #
                  #        Max Planck Institute fuer Kohlenforschung    #
                  #                Kaiser Wilhelm Platz 1               #
                  #                 D-45470 Muelheim/Ruhr               #
                  #                      Germany                        #
                  #                                                     #
                  #                  All rights reserved                #
                  #                        -***-                        #
                  #######################################################


                         Program Version 4.2.1 -  RELEASE  -


 With contributions from (in alphabetic order):
   Daniel Aravena         : Magnetic Suceptibility
   Michael Atanasov       : Ab Initio Ligand Field Theory (pilot matlab implementation)
   Alexander A. Auer      : GIAO ZORA, VPT2
   Ute Becker             : Parallelization
   Giovanni Bistoni       : ED, misc. LED, open-shell LED, HFLD
   Martin Brehm           : Molecular dynamics
   Dmytro Bykov           : SCF Hessian
   Vijay G. Chilkuri      : MRCI spin determinant printing, contributions to CSF-ICE
   Dipayan Datta          : RHF DLPNO-CCSD density
   Achintya Kumar Dutta   : EOM-CC, STEOM-CC
   Dmitry Ganyushin       : Spin-Orbit,Spin-Spin,Magnetic field MRCI
   Miquel Garcia          : C-PCM Hessian, Gaussian charge scheme
   Yang Guo               : DLPNO-NEVPT2, CIM, IAO-localization
   Andreas Hansen         : Spin unrestricted coupled pair/coupled cluster methods
   Benjamin Helmich-Paris : CASSCF linear response (MC-RPA)
   Lee Huntington         : MR-EOM, pCC
   Robert Izsak           : Overlap fitted RIJCOSX, COSX-SCS-MP3, EOM
   Christian Kollmar      : KDIIS, OOCD, Brueckner-CCSD(T), CCSD density
   Simone Kossmann        : Meta GGA functionals, TD-DFT gradient, OOMP2, MP2 Hessian
   Martin Krupicka        : AUTO-CI
   Lucas Lang             : DCDCAS
   Dagmar Lenk            : GEPOL surface, SMD
   Dimitrios Liakos       : Extrapolation schemes; Compound Job, initial MDCI parallelization
   Dimitrios Manganas     : Further ROCIS development; embedding schemes
   Dimitrios Pantazis     : SARC Basis sets
   Taras Petrenko         : DFT Hessian,TD-DFT gradient, ASA, ECA, R-Raman, ABS, FL, XAS/XES, NRVS
   Peter Pinski           : DLPNO-MP2, DLPNO-MP2 Gradient
   Christoph Reimann      : Effective Core Potentials
   Marius Retegan         : Local ZFS, SOC
   Christoph Riplinger    : Optimizer, TS searches, QM/MM, DLPNO-CCSD(T), (RO)-DLPNO pert. Triples
   Tobias Risthaus        : Range-separated hybrids, TD-DFT gradient, RPA, STAB
   Michael Roemelt        : Original ROCIS implementation
   Masaaki Saitow         : Open-shell DLPNO-CCSD energy and density
   Barbara Sandhoefer     : DKH picture change effects
   Avijit Sen             : IP-ROCIS
   Kantharuban Sivalingam : CASSCF convergence, NEVPT2, FIC-MRCI
   Bernardo de Souza      : ESD, SOC TD-DFT
   Georgi Stoychev        : AutoAux, RI-MP2 NMR
   Willem Van den Heuvel  : Paramagnetic NMR
   Boris Wezisla          : Elementary symmetry handling
   Frank Wennmohs         : Technical directorship


 We gratefully acknowledge several colleagues who have allowed us to
 interface, adapt or use parts of their codes:
   Stefan Grimme, W. Hujo, H. Kruse,             : VdW corrections, initial TS optimization,
                  C. Bannwarth                     DFT functionals, gCP, sTDA/sTD-DF
   Ed Valeev, F. Pavosevic, A. Kumar             : LibInt (2-el integral package), F12 methods
   Garnet Chan, S. Sharma, J. Yang, R. Olivares  : DMRG
   Ulf Ekstrom                                   : XCFun DFT Library
   Mihaly Kallay                                 : mrcc  (arbitrary order and MRCC methods)
   Andreas Klamt, Michael Diedenhofen            : otool_cosmo (COSMO solvation model)
   Jiri Pittner, Ondrej Demel                    : Mk-CCSD
   Frank Weinhold                                : gennbo (NPA and NBO analysis)
   Christopher J. Cramer and Donald G. Truhlar   : smd solvation model
   Lars Goerigk                                  : TD-DFT with DH, B97 family of functionals
   V. Asgeirsson, H. Jonsson                     : NEB implementation
   FAccTs GmbH                                   : IRC, NEB, NEB-TS, Multilevel, MM, QM/MM, CI optimization
   S Lehtola, MJT Oliveira, MAL Marques          : LibXC Library


 Your calculation uses the libint2 library for the computation of 2-el integrals
 For citations please refer to: http://libint.valeyev.net

 Your ORCA version has been built with support for libXC version: 4.2.3
 For citations please refer to: https://tddft.org/programs/libxc/

 This ORCA versions uses:
   CBLAS   interface :  Fast vector & matrix operations
   LAPACKE interface :  Fast linear algebra routines
   SCALAPACK package :  Parallel linear algebra routines


----- Orbital basis set information -----
Your calculation utilizes the basis: STO-3G
   H-Ne       : W. J. Hehre, R. F. Stewart and J. A. Pople, J. Chem. Phys. 2657 (1969).
   Na-Ar      : W. J. Hehre, R. Ditchfield, R. F. Stewart and J. A. Pople, J. Chem. Phys. 2769 (1970).
   K,Ca,Ga-Kr : W. J. Pietro, B. A. Levy, W. J. Hehre and R. F. Stewart, J. Am. Chem. Soc. 19, 2225 (1980).
   Sc-Zn,Y-Cd : W. J. Pietro and W. J. Hehre, J. Comp. Chem. 4, 241 (1983).

================================================================================
                                        WARNINGS
                       Please study these warnings very carefully!
================================================================================


WARNING: Geometry Optimization
  ===> : Switching off AutoStart
         For restart on a previous wavefunction, please use MOREAD

INFO   : the flag for use of LIBINT has been found!

================================================================================
                                       INPUT FILE
================================================================================
NAME = dummy4.inp
|  1> ! B3LYP OPT STO-3G
|  2> %pal
|  3> 	nprocs 28
|  4> end
|  5> * xyz 0 1
|  6>   C     -3.452440    0.712200    0.112300
|  7>   C     -2.854410    2.067000   -0.087770
|  8>   C     -2.180790    2.294020   -1.303530
|  9>   C     -0.978290    2.991150   -1.337050
| 10>   C     -0.394940    3.491070   -0.156240
| 11>   C     -1.263000    3.595630    0.953140
| 12>   C     -2.468100    2.896110    0.987490
| 13>   C     -3.146900    0.051140    1.317720
| 14>   C     -2.852670   -1.307900    1.334290
| 15>   C     -2.850710   -2.064690    0.146350
| 16>   C     -1.750560   -3.060350   -0.028940
| 17>   C     -1.025270   -3.587410    1.061510
| 18>   C      0.359930   -3.723820    0.999750
| 19>   C      1.078790   -3.341450   -0.154950
| 20>   C      2.376020   -2.603670   -0.071370
| 21>   C      2.794420   -2.071370    1.166140
| 22>   C      3.369220   -0.807520    1.249940
| 23>   C      3.524920   -0.003220    0.100850
| 24>   C      3.484330   -0.703720   -1.123830
| 25>   C      2.936100   -1.979970   -1.207000
| 26>   C      0.306000   -3.214710   -1.327120
| 27>   C     -1.075390   -3.072660   -1.265180
| 28>   C     -3.530490   -1.484270   -0.947070
| 29>   C     -3.824850   -0.121940   -0.964160
| 30>   H     -2.470040    1.740800   -2.191530
| 31>   H     -0.396430    2.946550   -2.251890
| 32>   H     -0.933730    4.101650    1.857050
| 33>   H     -3.032730    2.880270    1.916480
| 34>   H     -2.915890    0.629970    2.206500
| 35>   H     -2.408990   -1.717030    2.236330
| 36>   H     -1.518110   -3.748470    2.016950
| 37>   H      0.889060   -3.984550    1.912210
| 38>   H      2.505840   -2.555680    2.093910
| 39>   H      3.522750   -0.388580    2.239500
| 40>   H      3.717610   -0.193820   -2.053560
| 41>   H      2.793000   -2.407790   -2.194860
| 42>   H      0.786250   -3.012770   -2.278630
| 43>   H     -1.591470   -2.756600   -2.166300
| 44>   H     -3.697240   -2.061540   -1.853050
| 45>   H     -4.208860    0.314830   -1.882820
| 46>   H      0.610698    3.929611   -0.148087
| 47>   H      3.845536    1.044192    0.161662
| 48> 
| 49> **                         ****END OF INPUT****
================================================================================

                       *****************************
                       * Geometry Optimization Run *
                       *****************************

Geometry optimization settings:
Update method            Update   .... BFGS
Choice of coordinates    CoordSys .... Z-matrix Internals
Initial Hessian          InHess   .... Almoef's Model

Convergence Tolerances:
Energy Change            TolE     ....  5.0000e-06 Eh
Max. Gradient            TolMAXG  ....  3.0000e-04 Eh/bohr
RMS Gradient             TolRMSG  ....  1.0000e-04 Eh/bohr
Max. Displacement        TolMAXD  ....  4.0000e-03 bohr
RMS Displacement         TolRMSD  ....  2.0000e-03 bohr
Strict Convergence                ....  False
------------------------------------------------------------------------------
                        ORCA OPTIMIZATION COORDINATE SETUP
------------------------------------------------------------------------------

The optimization will be done in new redundant internal coordinates
Making redundant internal coordinates   ...  (new redundants) done
Evaluating the initial hessian          ...  (Almloef) done
Evaluating the coordinates              ...  done
Calculating the B-matrix                .... done
Calculating the G-matrix                .... done
Diagonalizing the G-matrix              .... done
Small eigenvalue found = 2.935e-03
Small eigenvalue found = 7.541e-03
Small eigenvalue found = 1.258e-02
Small eigenvalue found = 1.720e-02
Small eigenvalue found = 2.297e-02
The first mode is                       ....  106
The number of degrees of freedom        ....  120

    -----------------------------------------------------------------
                    Redundant Internal Coordinates


    -----------------------------------------------------------------
         Definition                    Initial Value    Approx d2E/dq
    -----------------------------------------------------------------
      1. B(C   1,C   0)                  1.4944         0.425812   
      2. B(C   2,C   1)                  1.4083         0.584124   
      3. B(C   3,C   2)                  1.3904         0.623955   
      4. B(C   4,C   3)                  1.4087         0.583245   
      5. B(C   5,C   4)                  1.4125         0.575208   
      6. B(C   6,C   5)                  1.3938         0.616057   
      7. B(C   6,C   1)                  1.4117         0.576963   
      8. B(C   7,C   0)                  1.4083         0.584110   
      9. B(C   8,C   7)                  1.3906         0.623365   
     10. B(C   9,C   8)                  1.4085         0.583696   
     11. B(C  10,C   9)                  1.4941         0.426208   
     12. B(C  11,C  10)                  1.4117         0.576906   
     13. B(C  12,C  11)                  1.3933         0.617336   
     14. B(C  13,C  12)                  1.4129         0.574376   
     15. B(C  14,C  13)                  1.4947         0.425310   
     16. B(C  15,C  14)                  1.4106         0.579228   
     17. B(C  16,C  15)                  1.3909         0.622626   
     18. B(C  17,C  16)                  1.4112         0.577936   
     19. B(C  18,C  17)                  1.4114         0.577454   
     20. B(C  19,C  18)                  1.3915         0.621351   
     21. B(C  19,C  14)                  1.4115         0.577336   
     22. B(C  20,C  13)                  1.4097         0.581180   
     23. B(C  21,C  20)                  1.3901         0.624670   
     24. B(C  21,C  10)                  1.4087         0.583423   
     25. B(C  22,C   9)                  1.4123         0.575679   
     26. B(C  23,C  22)                  1.3939         0.615969   
     27. B(C  23,C   0)                  1.4118         0.576661   
     28. B(H  24,C   2)                  1.0855         0.366132   
     29. B(H  25,C   3)                  1.0851         0.366616   
     30. B(H  26,C   5)                  1.0870         0.364116   
     31. B(H  27,C   6)                  1.0872         0.363776   
     32. B(H  28,C   7)                  1.0855         0.366084   
     33. B(H  29,C   8)                  1.0853         0.366347   
     34. B(H  30,C  11)                  1.0871         0.364012   
     35. B(H  31,C  12)                  1.0865         0.364723   
     36. B(H  32,C  15)                  1.0856         0.365928   
     37. B(H  33,C  16)                  1.0855         0.366102   
     38. B(H  34,C  18)                  1.0857         0.365790   
     39. B(H  35,C  19)                  1.0860         0.365444   
     40. B(H  36,C  20)                  1.0848         0.367045   
     41. B(H  37,C  21)                  1.0855         0.366140   
     42. B(H  38,C  22)                  1.0871         0.363920   
     43. B(H  39,C  23)                  1.0873         0.363722   
     44. B(H  40,C   4)                  1.0971         0.350791   
     45. B(H  41,H  40)                  4.3458         0.000000   
     46. B(H  41,C  17)                  1.0971         0.350867   
     47. A(C   7,C   0,C  23)          115.6267         0.423902   
     48. A(C   1,C   0,C  23)          122.6240         0.400779   
     49. A(C   1,C   0,C   7)          116.9571         0.401686   
     50. A(C   2,C   1,C   6)          115.5929         0.423943   
     51. A(C   0,C   1,C   2)          116.9450         0.401688   
     52. A(C   0,C   1,C   6)          122.6838         0.400816   
     53. A(C   3,C   2,H  24)          117.7934         0.354285   
     54. A(C   1,C   2,C   3)          121.0189         0.429932   
     55. A(C   1,C   2,H  24)          119.7755         0.350353   
     56. A(C   2,C   3,C   4)          121.0555         0.429816   
     57. A(C   2,C   3,H  25)          117.6120         0.354364   
     58. A(C   4,C   3,H  25)          119.9480         0.350342   
     59. A(C   3,C   4,C   5)          115.4746         0.423598   
     60. A(C   3,C   4,H  40)          121.8462         0.347745   
     61. A(C   5,C   4,H  40)          121.8622         0.346934   
     62. A(C   6,C   5,H  26)          118.3622         0.353190   
     63. A(C   4,C   5,H  26)          120.0939         0.349120   
     64. A(C   4,C   5,C   6)          120.9001         0.427769   
     65. A(C   1,C   6,C   5)          120.8361         0.428003   
     66. A(C   5,C   6,H  27)          118.5141         0.353135   
     67. A(C   1,C   6,H  27)          120.0102         0.349244   
     68. A(C   8,C   7,H  28)          117.7968         0.354220   
     69. A(C   0,C   7,H  28)          119.7801         0.350344   
     70. A(C   0,C   7,C   8)          120.9863         0.429858   
     71. A(C   7,C   8,H  29)          117.6975         0.354263   
     72. A(C   9,C   8,H  29)          119.8584         0.350345   
     73. A(C   7,C   8,C   9)          121.0199         0.429803   
     74. A(C   8,C   9,C  22)          115.5619         0.423719   
     75. A(C  10,C   9,C  22)          122.5105         0.400724   
     76. A(C   8,C   9,C  10)          117.2592         0.401702   
     77. A(C  11,C  10,C  21)          115.3647         0.423845   
     78. A(C   9,C  10,C  11)          122.4437         0.400874   
     79. A(C   9,C  10,C  21)          117.4971         0.401668   
     80. A(C  10,C  11,C  12)          120.8709         0.428155   
     81. A(C  12,C  11,H  30)          118.3723         0.353297   
     82. A(C  10,C  11,H  30)          120.0859         0.349276   
     83. A(C  11,C  12,C  13)          121.0353         0.427817   
     84. A(C  11,C  12,H  31)          118.0628         0.353414   
     85. A(C  13,C  12,H  31)          120.2314         0.349133   
     86. A(C  14,C  13,C  20)          118.5478         0.401247   
     87. A(C  12,C  13,C  20)          115.1486         0.423220   
     88. A(C  12,C  13,C  14)          121.9682         0.400416   
     89. A(C  15,C  14,C  19)          114.9222         0.423355   
     90. A(C  13,C  14,C  19)          121.1642         0.400778   
     91. A(C  13,C  14,C  15)          119.5209         0.401009   
     92. A(C  16,C  15,H  32)          117.6266         0.354123   
     93. A(C  14,C  15,H  32)          120.1679         0.349823   
     94. A(C  14,C  15,C  16)          121.2181         0.429119   
     95. A(C  17,C  16,H  33)          120.4456         0.349719   
     96. A(C  15,C  16,H  33)          117.6485         0.354152   
     97. A(C  15,C  16,C  17)          120.9568         0.428947   
     98. A(C  16,C  17,C  18)          114.8647         0.423201   
     99. A(C  18,C  17,H  41)          122.0280         0.347174   
    100. A(C  16,C  17,H  41)          122.0894         0.347223   
    101. A(C  19,C  18,H  34)          117.6589         0.353977   
    102. A(C  17,C  18,H  34)          120.2481         0.349620   
    103. A(C  17,C  18,C  19)          121.2238         0.428725   
    104. A(C  18,C  19,H  35)          117.8785         0.353921   
    105. A(C  14,C  19,H  35)          120.3643         0.349552   
    106. A(C  14,C  19,C  18)          120.8981         0.428710   
    107. A(C  21,C  20,H  36)          117.3877         0.354503   
    108. A(C  13,C  20,H  36)          120.2240         0.350202   
    109. A(C  13,C  20,C  21)          121.1255         0.429631   
    110. A(C  10,C  21,H  37)          119.8765         0.350283   
    111. A(C  10,C  21,C  20)          121.0853         0.429928   
    112. A(C  20,C  21,H  37)          117.7259         0.354355   
    113. A(C   9,C  22,C  23)          120.8518         0.427821   
    114. A(C  23,C  22,H  38)          118.4491         0.353150   
    115. A(C   9,C  22,H  38)          120.0536         0.349136   
    116. A(C   0,C  23,C  22)          120.8239         0.427952   
    117. A(C  22,C  23,H  39)          118.5265         0.353117   
    118. A(C   0,C  23,H  39)          120.0027         0.349205   
    119. D(C   6,C   1,C   0,C  23)   -179.2887         0.012396   
    120. D(C   2,C   1,C   0,C  23)    -24.8840         0.012396   
    121. D(C   6,C   1,C   0,C   7)    -24.9093         0.012396   
    122. D(C   2,C   1,C   0,C   7)    129.4954         0.012396   
    123. D(C   3,C   2,C   1,C   6)     17.9241         0.023457   
    124. D(H  24,C   2,C   1,C   6)   -175.9364         0.023457   
    125. D(H  24,C   2,C   1,C   0)     27.8398         0.023457   
    126. D(C   3,C   2,C   1,C   0)   -138.2998         0.023457   
    127. D(H  25,C   3,C   2,H  24)      0.2264         0.026961   
    128. D(H  25,C   3,C   2,C   1)    166.6320         0.026961   
    129. D(C   4,C   3,C   2,C   1)      0.0725         0.026961   
    130. D(C   4,C   3,C   2,H  24)   -166.3331         0.026961   
    131. D(H  40,C   4,C   3,C   2)    172.0980         0.023383   
    132. D(C   5,C   4,C   3,H  25)    175.6753         0.023383   
    133. D(C   5,C   4,C   3,C   2)    -18.0755         0.023383   
    134. D(H  40,C   4,C   3,H  25)      5.8489         0.023383   
    135. D(H  26,C   5,C   4,H  40)     -1.4324         0.022714   
    136. D(H  26,C   5,C   4,C   3)   -171.2571         0.022714   
    137. D(C   6,C   5,C   4,H  40)   -172.0845         0.022714   
    138. D(C   6,C   5,C   4,C   3)     18.0909         0.022714   
    139. D(H  27,C   6,C   5,H  26)     -0.1408         0.026242   
    140. D(H  27,C   6,C   5,C   4)    170.6694         0.026242   
    141. D(C   1,C   6,C   5,C   4)     -0.1641         0.026242   
    142. D(H  27,C   6,C   1,C   2)    171.4598         0.022860   
    143. D(H  27,C   6,C   1,C   0)    -33.8181         0.022860   
    144. D(C   1,C   6,C   5,H  26)   -170.9743         0.026242   
    145. D(C   5,C   6,C   1,C   2)    -17.8430         0.022860   
    146. D(C   5,C   6,C   1,C   0)    136.8791         0.022860   
    147. D(H  28,C   7,C   0,C   1)     27.8338         0.023456   
    148. D(C   8,C   7,C   0,C  23)     17.9880         0.023456   
    149. D(C   8,C   7,C   0,C   1)   -138.1884         0.023456   
    150. D(H  28,C   7,C   0,C  23)   -175.9898         0.023456   
    151. D(H  29,C   8,C   7,H  28)      0.0927         0.026907   
    152. D(H  29,C   8,C   7,C   0)    166.3835         0.026907   
    153. D(C   9,C   8,C   7,H  28)   -166.2672         0.026907   
    154. D(C   9,C   8,C   7,C   0)      0.0235         0.026907   
    155. D(C  22,C   9,C   8,H  29)    175.8841         0.023421   
    156. D(C  22,C   9,C   8,C   7)    -18.0472         0.023421   
    157. D(C  10,C   9,C   8,H  29)    -27.6768         0.023421   
    158. D(C  10,C   9,C   8,C   7)    138.3919         0.023421   
    159. D(C  21,C  10,C   9,C  22)     22.0516         0.012419   
    160. D(C  21,C  10,C   9,C   8)   -132.6326         0.012419   
    161. D(C  11,C  10,C   9,C  22)    176.6242         0.012419   
    162. D(C  11,C  10,C   9,C   8)     21.9400         0.012419   
    163. D(H  30,C  11,C  10,C  21)   -171.1764         0.022855   
    164. D(H  30,C  11,C  10,C   9)     33.7527         0.022855   
    165. D(C  12,C  11,C  10,C  21)     18.3634         0.022855   
    166. D(C  12,C  11,C  10,C   9)   -136.7075         0.022855   
    167. D(H  31,C  12,C  11,H  30)     -0.0899         0.026358   
    168. D(H  31,C  12,C  11,C  10)    170.5301         0.026358   
    169. D(C  13,C  12,C  11,H  30)   -170.7254         0.026358   
    170. D(C  13,C  12,C  11,C  10)     -0.1055         0.026358   
    171. D(C  20,C  13,C  12,H  31)    171.1868         0.022646   
    172. D(C  20,C  13,C  12,C  11)    -18.3793         0.022646   
    173. D(C  14,C  13,C  12,H  31)    -32.5634         0.022646   
    174. D(C  14,C  13,C  12,C  11)    137.8705         0.022646   
    175. D(C  19,C  14,C  13,C  20)    -10.7345         0.012368   
    176. D(C  19,C  14,C  13,C  12)   -166.2131         0.012368   
    177. D(C  15,C  14,C  13,C  20)    144.5477         0.012368   
    178. D(C  15,C  14,C  13,C  12)    -10.9310         0.012368   
    179. D(H  32,C  15,C  14,C  13)     30.1205         0.023048   
    180. D(C  16,C  15,C  14,C  19)     18.5202         0.023048   
    181. D(C  16,C  15,C  14,C  13)   -138.2422         0.023048   
    182. D(H  32,C  15,C  14,C  19)   -173.1171         0.023048   
    183. D(H  33,C  16,C  15,H  32)      1.6993         0.026839   
    184. D(H  33,C  16,C  15,C  14)    170.3473         0.026839   
    185. D(C  17,C  16,C  15,H  32)   -167.2006         0.026839   
    186. D(C  17,C  16,C  15,C  14)      1.4473         0.026839   
    187. D(H  41,C  17,C  16,H  33)      2.7932         0.022940   
    188. D(H  41,C  17,C  16,C  15)    171.3840         0.022940   
    189. D(C  18,C  17,C  16,H  33)    171.4648         0.022940   
    190. D(C  18,C  17,C  16,C  15)    -19.9444         0.022940   
    191. D(H  34,C  18,C  17,H  41)     -3.6757         0.022900   
    192. D(H  34,C  18,C  17,C  16)   -172.3550         0.022900   
    193. D(C  19,C  18,C  17,H  41)   -172.7530         0.022900   
    194. D(C  19,C  18,C  17,C  16)     18.5677         0.022900   
    195. D(H  35,C  19,C  18,H  34)      1.4514         0.026722   
    196. D(H  35,C  19,C  18,C  17)    170.8016         0.026722   
    197. D(C  14,C  19,C  18,H  34)   -167.9748         0.026722   
    198. D(C  14,C  19,C  18,C  17)      1.3755         0.026722   
    199. D(H  35,C  19,C  14,C  15)    170.9505         0.022890   
    200. D(H  35,C  19,C  14,C  13)    -32.7044         0.022890   
    201. D(C  18,C  19,C  14,C  15)    -19.8852         0.022890   
    202. D(C  18,C  19,C  14,C  13)    136.4599         0.022890   
    203. D(H  36,C  20,C  13,C  14)     28.4062         0.023210   
    204. D(H  36,C  20,C  13,C  12)   -174.4835         0.023210   
    205. D(C  21,C  20,C  13,C  14)   -138.4235         0.023210   
    206. D(C  21,C  20,C  13,C  12)     18.6867         0.023210   
    207. D(H  37,C  21,C  20,H  36)     -0.7559         0.027027   
    208. D(H  37,C  21,C  20,C  13)    166.4337         0.027027   
    209. D(C  10,C  21,C  20,H  36)   -167.6559         0.027027   
    210. D(C  10,C  21,C  20,C  13)     -0.4663         0.027027   
    211. D(H  37,C  21,C  10,C  11)    175.2610         0.023398   
    212. D(H  37,C  21,C  10,C   9)    -28.3804         0.023398   
    213. D(C  20,C  21,C  10,C  11)    -18.1172         0.023398   
    214. D(C  20,C  21,C  10,C   9)    138.2415         0.023398   
    215. D(H  38,C  22,C   9,C  10)     33.6169         0.022753   
    216. D(H  38,C  22,C   9,C   8)   -171.3037         0.022753   
    217. D(C  23,C  22,C   9,C  10)   -137.0317         0.022753   
    218. D(C  23,C  22,C   9,C   8)     18.0477         0.022753   
    219. D(H  39,C  23,C  22,H  38)     -0.1026         0.026234   
    220. D(H  39,C  23,C  22,C   9)    170.6928         0.026234   
    221. D(C   0,C  23,C  22,H  38)   -170.8834         0.026234   
    222. D(C   0,C  23,C  22,C   9)     -0.0879         0.026234   
    223. D(H  39,C  23,C   0,C   7)    171.4313         0.022835   
    224. D(H  39,C  23,C   0,C   1)    -33.8764         0.022835   
    225. D(C  22,C  23,C   0,C   7)    -17.9232         0.022835   
    226. D(C  22,C  23,C   0,C   1)    136.7691         0.022835   
    -----------------------------------------------------------------

Number of atoms                         .... 42
Number of degrees of freedom            .... 226

         *************************************************************
         *                GEOMETRY OPTIMIZATION CYCLE   1            *
         *************************************************************
---------------------------------
CARTESIAN COORDINATES (ANGSTROEM)
---------------------------------
  C     -3.452440    0.712200    0.112300
  C     -2.854410    2.067000   -0.087770
  C     -2.180790    2.294020   -1.303530
  C     -0.978290    2.991150   -1.337050
  C     -0.394940    3.491070   -0.156240
  C     -1.263000    3.595630    0.953140
  C     -2.468100    2.896110    0.987490
  C     -3.146900    0.051140    1.317720
  C     -2.852670   -1.307900    1.334290
  C     -2.850710   -2.064690    0.146350
  C     -1.750560   -3.060350   -0.028940
  C     -1.025270   -3.587410    1.061510
  C      0.359930   -3.723820    0.999750
  C      1.078790   -3.341450   -0.154950
  C      2.376020   -2.603670   -0.071370
  C      2.794420   -2.071370    1.166140
  C      3.369220   -0.807520    1.249940
  C      3.524920   -0.003220    0.100850
  C      3.484330   -0.703720   -1.123830
  C      2.936100   -1.979970   -1.207000
  C      0.306000   -3.214710   -1.327120
  C     -1.075390   -3.072660   -1.265180
  C     -3.530490   -1.484270   -0.947070
  C     -3.824850   -0.121940   -0.964160
  H     -2.470040    1.740800   -2.191530
  H     -0.396430    2.946550   -2.251890
  H     -0.933730    4.101650    1.857050
  H     -3.032730    2.880270    1.916480
  H     -2.915890    0.629970    2.206500
  H     -2.408990   -1.717030    2.236330
  H     -1.518110   -3.748470    2.016950
  H      0.889060   -3.984550    1.912210
  H      2.505840   -2.555680    2.093910
  H      3.522750   -0.388580    2.239500
  H      3.717610   -0.193820   -2.053560
  H      2.793000   -2.407790   -2.194860
  H      0.786250   -3.012770   -2.278630
  H     -1.591470   -2.756600   -2.166300
  H     -3.697240   -2.061540   -1.853050
  H     -4.208860    0.314830   -1.882820
  H      0.610698    3.929611   -0.148087
  H      3.845536    1.044192    0.161662

----------------------------
CARTESIAN COORDINATES (A.U.)
----------------------------
  NO LB      ZA    FRAG     MASS         X           Y           Z
   0 C     6.0000    0    12.011   -6.524166    1.345863    0.212216
   1 C     6.0000    0    12.011   -5.394053    3.906064   -0.165861
   2 C     6.0000    0    12.011   -4.121096    4.335070   -2.463315
   3 C     6.0000    0    12.011   -1.848700    5.652454   -2.526658
   4 C     6.0000    0    12.011   -0.746328    6.597166   -0.295251
   5 C     6.0000    0    12.011   -2.386724    6.794756    1.801174
   6 C     6.0000    0    12.011   -4.664033    5.472855    1.866086
   7 C     6.0000    0    12.011   -5.946779    0.096641    2.490130
   8 C     6.0000    0    12.011   -5.390765   -2.471573    2.521443
   9 C     6.0000    0    12.011   -5.387061   -3.901699    0.276561
  10 C     6.0000    0    12.011   -3.308079   -5.783223   -0.054689
  11 C     6.0000    0    12.011   -1.937480   -6.779222    2.005963
  12 C     6.0000    0    12.011    0.680169   -7.037000    1.889254
  13 C     6.0000    0    12.011    2.038618   -6.314425   -0.292813
  14 C     6.0000    0    12.011    4.490027   -4.920223   -0.134870
  15 C     6.0000    0    12.011    5.280689   -3.914322    2.203685
  16 C     6.0000    0    12.011    6.366903   -1.525992    2.362044
  17 C     6.0000    0    12.011    6.661133   -0.006085    0.190579
  18 C     6.0000    0    12.011    6.584429   -1.329838   -2.123731
  19 C     6.0000    0    12.011    5.548425   -3.741601   -2.280899
  20 C     6.0000    0    12.011    0.578256   -6.074921   -2.507893
  21 C     6.0000    0    12.011   -2.032193   -5.806486   -2.390844
  22 C     6.0000    0    12.011   -6.671659   -2.804864   -1.789703
  23 C     6.0000    0    12.011   -7.227919   -0.230433   -1.821998
  24 H     1.0000    0     1.008   -4.667699    3.289635   -4.141392
  25 H     1.0000    0     1.008   -0.749144    5.568173   -4.255455
  26 H     1.0000    0     1.008   -1.764494    7.750995    3.509316
  27 H     1.0000    0     1.008   -5.731029    5.442921    3.621622
  28 H     1.0000    0     1.008   -5.510234    1.190471    4.169681
  29 H     1.0000    0     1.008   -4.552331   -3.244716    4.226051
  30 H     1.0000    0     1.008   -2.868812   -7.083582    3.811483
  31 H     1.0000    0     1.008    1.680080   -7.529708    3.613553
  32 H     1.0000    0     1.008    4.735351   -4.829535    3.956916
  33 H     1.0000    0     1.008    6.657033   -0.734310    4.232042
  34 H     1.0000    0     1.008    7.025265   -0.366267   -3.880666
  35 H     1.0000    0     1.008    5.278005   -4.550064   -4.147684
  36 H     1.0000    0     1.008    1.485797   -5.693310   -4.305987
  37 H     1.0000    0     1.008   -3.007442   -5.209219   -4.093714
  38 H     1.0000    0     1.008   -6.986771   -3.895746   -3.501757
  39 H     1.0000    0     1.008   -7.953593    0.594942   -3.558014
  40 H     1.0000    0     1.008    1.154052    7.425889   -0.279844
  41 H     1.0000    0     1.008    7.267010    1.973237    0.305497

--------------------------------
INTERNAL COORDINATES (ANGSTROEM)
--------------------------------
 C      0   0   0     0.000000000000     0.00000000     0.00000000
 C      1   0   0     1.494373087887     0.00000000     0.00000000
 C      2   1   0     1.408323244997   116.94496459     0.00000000
 C      3   2   1     1.390366885861   121.01891143   221.70024825
 C      4   3   2     1.408733290939   121.05545133     0.07249460
 C      5   4   3     1.412510156282   115.47458631   341.92445393
 C      6   5   4     1.393834338399   120.90006211    18.09087082
 C      1   2   3     1.408329645928   116.95709806   129.49536763
 C      8   1   2     1.390624168998   120.98634117   221.81155938
 C      9   8   1     1.408522768471   121.01986464     0.02353366
 C     10   9   8     1.494120290405   117.25915859   138.39187999
 C     11  10   9     1.411707841658   122.44365650    21.93998615
 C     12  11  10     1.393269904110   120.87089659   223.29247592
 C     13  12  11     1.412904316116   121.03525948   359.89454711
 C     14  13  12     1.494694155237   121.96822710   137.87045837
 C     15  14  13     1.410614352011   119.52086942   349.06903242
 C     16  15  14     1.390947268052   121.21814005   221.75784900
 C     17  16  15     1.411222451671   120.95677612     1.44731997
 C     18  17  16     1.411449219951   114.86472197   340.05557580
 C     19  18  17     1.391505459673   121.22377482    18.56770682
 C     14  13  12     1.409698521174   115.14864785   341.62065206
 C     21  14  13     1.390055070204   121.12548647    18.68673622
 C     10   9   8     1.412287336628   115.56190921   341.95278085
 C     23  10   9     1.393873346685   120.85180166    18.04769644
 H      3   2   1     1.085477743162   119.77548923    27.83977084
 H      4   3   2     1.085118631856   117.61197089   166.63199232
 H      6   5   4     1.086981260832   120.09385070   188.74292359
 H      7   6   5     1.087235191943   118.51411844   170.66941343
 H      8   1   2     1.085513554683   119.78014562    27.83375051
 H      9   8   1     1.085318138105   117.69754836   166.38345461
 H     12  11  10     1.087058960130   120.08587577    33.75267165
 H     13  12  11     1.086527469234   118.06282786   170.53005623
 H     16  15  14     1.085629663099   120.16785925    30.12052016
 H     17  16  15     1.085500427499   117.64852262   170.34729424
 H     19  18  17     1.085732674879   120.24810545   187.64497003
 H     20  19  18     1.085990304745   117.87854325   170.80157455
 H     21  14  13     1.084800030513   120.22402909   185.51645100
 H     22  21  14     1.085472129721   117.72592139   166.43370812
 H     23  10   9     1.087127396306   120.05356758   188.69630624
 H     24  23  10     1.087275452036   118.52651487   170.69283044
 H      5   4   3     1.097129193456   121.84617810   172.09802196
 H     18  17  16     1.097070925941   122.08941674   171.38399060

---------------------------
INTERNAL COORDINATES (A.U.)
---------------------------
 C      0   0   0     0.000000000000     0.00000000     0.00000000
 C      1   0   0     2.823955878008     0.00000000     0.00000000
 C      2   1   0     2.661345241080   116.94496459     0.00000000
 C      3   2   1     2.627412639951   121.01891143   221.70024825
 C      4   3   2     2.662120115612   121.05545133     0.07249460
 C      5   4   3     2.669257356755   115.47458631   341.92445393
 C      6   5   4     2.633965175629   120.90006211    18.09087082
 C      1   2   3     2.661357337086   116.95709806   129.49536763
 C      8   1   2     2.627898834617   120.98634117   221.81155938
 C      9   8   1     2.661722285802   121.01986464     0.02353366
 C     10   9   8     2.823478160000   117.25915859   138.39187999
 C     11  10   9     2.667741201844   122.44365650    21.93998615
 C     12  11  10     2.632898549404   120.87089659   223.29247592
 C     13  12  11     2.670002210895   121.03525948   359.89454711
 C     14  13  12     2.824562607371   121.96822710   137.87045837
 C     15  14  13     2.665674805880   119.52086942   349.06903242
 C     16  15  14     2.628509403343   121.21814005   221.75784900
 C     17  16  15     2.666823947699   120.95677612     1.44731997
 C     18  17  16     2.667252477644   114.86472197   340.05557580
 C     19  18  17     2.629564232638   121.22377482    18.56770682
 C     14  13  12     2.663944136413   115.14864785   341.62065206
 C     21  14  13     2.626823393754   121.12548647    18.68673622
 C     10   9   8     2.668836288632   115.56190921   341.95278085
 C     23  10   9     2.634038890608   120.85180166    18.04769644
 H      3   2   1     2.051255659043   119.77548923    27.83977084
 H      4   3   2     2.050577037022   117.61197089   166.63199232
 H      6   5   4     2.054096895677   120.09385070   188.74292359
 H      7   6   5     2.054576755934   118.51411844   170.66941343
 H      8   1   2     2.051323333010   119.78014562    27.83375051
 H      9   8   1     2.050954049196   117.69754836   166.38345461
 H     12  11  10     2.054243726072   120.08587577    33.75267165
 H     13  12  11     2.053239353835   118.06282786   170.53005623
 H     16  15  14     2.051542746118   120.16785925    30.12052016
 H     17  16  15     2.051298526227   117.64852262   170.34729424
 H     19  18  17     2.051737410171   120.24810545   187.64497003
 H     20  19  18     2.052224260062   117.87854325   170.80157455
 H     21  14  13     2.049974967738   120.22402909   185.51645100
 H     22  21  14     2.051245051176   117.72592139   166.43370812
 H     23  10   9     2.054373051702   120.05356758   188.69630624
 H     24  23  10     2.054652836483   118.52651487   170.69283044
 H      5   4   3     2.073273709162   121.84617810   172.09802196
 H     18  17  16     2.073163599515   122.08941674   171.38399060

---------------------
BASIS SET INFORMATION
---------------------
There are 2 groups of distinct atoms

 Group   1 Type C   : 6s3p contracted to 2s1p pattern {33/3}
 Group   2 Type H   : 3s contracted to 1s pattern {3}

Atom   0C    basis set group =>   1
Atom   1C    basis set group =>   1
Atom   2C    basis set group =>   1
Atom   3C    basis set group =>   1
Atom   4C    basis set group =>   1
Atom   5C    basis set group =>   1
Atom   6C    basis set group =>   1
Atom   7C    basis set group =>   1
Atom   8C    basis set group =>   1
Atom   9C    basis set group =>   1
Atom  10C    basis set group =>   1
Atom  11C    basis set group =>   1
Atom  12C    basis set group =>   1
Atom  13C    basis set group =>   1
Atom  14C    basis set group =>   1
Atom  15C    basis set group =>   1
Atom  16C    basis set group =>   1
Atom  17C    basis set group =>   1
Atom  18C    basis set group =>   1
Atom  19C    basis set group =>   1
Atom  20C    basis set group =>   1
Atom  21C    basis set group =>   1
Atom  22C    basis set group =>   1
Atom  23C    basis set group =>   1
Atom  24H    basis set group =>   2
Atom  25H    basis set group =>   2
Atom  26H    basis set group =>   2
Atom  27H    basis set group =>   2
Atom  28H    basis set group =>   2
Atom  29H    basis set group =>   2
Atom  30H    basis set group =>   2
Atom  31H    basis set group =>   2
Atom  32H    basis set group =>   2
Atom  33H    basis set group =>   2
Atom  34H    basis set group =>   2
Atom  35H    basis set group =>   2
Atom  36H    basis set group =>   2
Atom  37H    basis set group =>   2
Atom  38H    basis set group =>   2
Atom  39H    basis set group =>   2
Atom  40H    basis set group =>   2
Atom  41H    basis set group =>   2


           ************************************************************
           *        Program running with 28 parallel MPI-processes    *
           *              working on a common directory               *
           ************************************************************
------------------------------------------------------------------------------
                           ORCA GTO INTEGRAL CALCULATION
------------------------------------------------------------------------------

                         BASIS SET STATISTICS AND STARTUP INFO

 # of primitive gaussian shells          ...  270
 # of primitive gaussian functions       ...  414
 # of contracted shells                  ...   90
 # of contracted basis functions         ...  138
 Highest angular momentum                ...    1
 Maximum contraction depth               ...    3
 Integral package used                   ... LIBINT
 Integral threshhold            Thresh   ...  2.500e-11
 Primitive cut-off              TCut     ...  2.500e-12


------------------------------ INTEGRAL EVALUATION ----------------------------


 * One electron integrals 
 Pre-screening matrix                    ... done
 Shell pair data                         ... done (   0.003 sec)



           ************************************************************
           *        Program running with 28 parallel MPI-processes    *
           *              working on a common directory               *
           ************************************************************
-------------------------------------------------------------------------------
                                 ORCA SCF
-------------------------------------------------------------------------------

------------
SCF SETTINGS
------------
Hamiltonian:
 Density Functional     Method          .... DFT(GTOs)
 Exchange Functional    Exchange        .... B88
   X-Alpha parameter    XAlpha          ....  0.666667
   Becke's b parameter  XBeta           ....  0.004200
 Correlation Functional Correlation     .... LYP
 LDA part of GGA corr.  LDAOpt          .... VWN-5
 Gradients option       PostSCFGGA      .... off
 Hybrid DFT is turned on
   Fraction HF Exchange ScalHFX         ....  0.200000
   Scaling of DF-GGA-X  ScalDFX         ....  0.720000
   Scaling of DF-GGA-C  ScalDFC         ....  0.810000
   Scaling of DF-LDA-C  ScalLDAC        ....  1.000000
   Perturbative correction              ....  0.000000
   Density functional embedding theory  .... OFF
   NL short-range parameter             ....  4.800000


General Settings:
 Integral files         IntName         .... dummy4
 Hartree-Fock type      HFTyp           .... RHF
 Total Charge           Charge          ....    0
 Multiplicity           Mult            ....    1
 Number of Electrons    NEL             ....  162
 Basis Dimension        Dim             ....  138
 Nuclear Repulsion      ENuc            ....   1796.5188697494 Eh

Convergence Acceleration:
 DIIS                   CNVDIIS         .... on
   Start iteration      DIISMaxIt       ....    12
   Startup error        DIISStart       ....  0.200000
   # of expansion vecs  DIISMaxEq       ....     5
   Bias factor          DIISBfac        ....   1.050
   Max. coefficient     DIISMaxC        ....  10.000
 Newton-Raphson         CNVNR           .... off
 SOSCF                  CNVSOSCF        .... on
   Start iteration      SOSCFMaxIt      ....   150
   Startup grad/error   SOSCFStart      ....  0.003300
 Level Shifting         CNVShift        .... on
   Level shift para.    LevelShift      ....    0.2500
   Turn off err/grad.   ShiftErr        ....    0.0010
 Zerner damping         CNVZerner       .... off
 Static damping         CNVDamp         .... on
   Fraction old density DampFac         ....    0.7000
   Max. Damping (<1)    DampMax         ....    0.9800
   Min. Damping (>=0)   DampMin         ....    0.0000
   Turn off err/grad.   DampErr         ....    0.1000
 Fernandez-Rico         CNVRico         .... off

SCF Procedure:
 Maximum # iterations   MaxIter         ....   125
 SCF integral mode      SCFMode         .... Direct
   Integral package                     .... LIBINT
 Reset frequency        DirectResetFreq ....    20
 Integral Threshold     Thresh          ....  2.500e-11 Eh
 Primitive CutOff       TCut            ....  2.500e-12 Eh

Convergence Tolerance:
 Convergence Check Mode ConvCheckMode   .... Total+1el-Energy
 Convergence forced     ConvForced      .... 0
 Energy Change          TolE            ....  1.000e-08 Eh
 1-El. energy change                    ....  1.000e-05 Eh
 Orbital Gradient       TolG            ....  1.000e-05
 Orbital Rotation angle TolX            ....  1.000e-05
 DIIS Error             TolErr          ....  5.000e-07


Diagonalization of the overlap matrix:
Smallest eigenvalue                        ... 1.722e-01
Time for diagonalization                   ...    0.008 sec
Threshold for overlap eigenvalues          ... 1.000e-08
Number of eigenvalues below threshold      ... 0
Time for construction of square roots      ...    0.013 sec
Total time needed                          ...    0.021 sec

-------------------
DFT GRID GENERATION
-------------------

General Integration Accuracy     IntAcc      ...  4.340
Radial Grid Type                 RadialGrid  ... Gauss-Chebyshev
Angular Grid (max. acc.)         AngularGrid ... Lebedev-110
Angular grid pruning method      GridPruning ... 3 (G Style)
Weight generation scheme         WeightScheme... Becke
Basis function cutoff            BFCut       ...    1.0000e-11
Integration weight cutoff        WCut        ...    1.0000e-14
Grids for H and He will be reduced by one unit

# of grid points (after initial pruning)     ...  54036 (   0.0 sec)
# of grid points (after weights+screening)   ...  47864 (   0.1 sec)
nearest neighbour list constructed           ...    0.0 sec
Grid point re-assignment to atoms done       ...    0.0 sec
Grid point division into batches done        ...    0.1 sec
Reduced shell lists constructed in    0.1 sec

Total number of grid points                  ...    47864
Total number of batches                      ...      768
Average number of points per batch           ...       62
Average number of grid points per atom       ...     1140
Average number of shells per batch           ...    46.83 (52.03%)
Average number of basis functions per batch  ...    78.97 (57.22%)
Average number of large shells per batch     ...    33.28 (71.06%)
Average number of large basis fcns per batch ...    57.48 (72.79%)
Maximum spatial batch extension              ...  16.33,  8.83,  7.56 au
Average spatial batch extension              ...   0.11,  0.09,  0.08 au

Time for grid setup =    0.281 sec

------------------------------
INITIAL GUESS: MODEL POTENTIAL
------------------------------
Loading Hartree-Fock densities                     ... done
Calculating cut-offs                               ... done
Setting up the integral package                    ... done
Initializing the effective Hamiltonian             ... done
Starting the Coulomb interaction                   ... done (   0.0 sec)
Reading the grid                                   ... done
Mapping shells                                     ... done
Starting the XC term evaluation                    ... done (   0.0 sec)
  promolecular density results
     # of electrons  =    161.975880374
     EX              =   -128.698122171
     EC              =     -5.423325074
     EX+EC           =   -134.121447244
Transforming the Hamiltonian                       ... done (   0.0 sec)
Diagonalizing the Hamiltonian                      ... done (   0.0 sec)
Back transforming the eigenvectors                 ... done (   0.0 sec)
Now organizing SCF variables                       ... done
                      ------------------
                      INITIAL GUESS DONE (   0.6 sec)
                      ------------------
--------------
SCF ITERATIONS
--------------
ITER       Energy         Delta-E        Max-DP      RMS-DP      [F,P]     Damp
               ***  Starting incremental Fock matrix formation  ***
  0   -913.2633336038   0.000000000000 0.04194675  0.00191605  0.0721409 0.7000
  1   -913.3029427875  -0.039609183628 0.03353431  0.00150764  0.0460808 0.7000
                               ***Turning on DIIS***
  2   -913.3245008246  -0.021558037086 0.06602587  0.00296685  0.0252565 0.0000
  3   -913.3577852162  -0.033284391675 0.02192188  0.00099753  0.0160018 0.0000
                      *** Initiating the SOSCF procedure ***
                           *** Shutting down DIIS ***
                      *** Re-Reading the Fockian *** 
                      *** Removing any level shift *** 
ITER      Energy       Delta-E        Grad      Rot      Max-DP    RMS-DP
  4   -913.36269027  -0.0049050551  0.001427  0.001427  0.005010  0.000232
               *** Restarting incremental Fock matrix formation ***
  5   -913.36292195  -0.0002316758  0.000419  0.002194  0.002377  0.000101
  6   -913.36292044   0.0000015104  0.000493  0.000726  0.001638  0.000054
  7   -913.36293307  -0.0000126320  0.000141  0.000337  0.000611  0.000027
  8   -913.36293288   0.0000001930  0.000137  0.000209  0.000467  0.000015
  9   -913.36293383  -0.0000009535  0.000036  0.000173  0.000196  0.000008
 10   -913.36293382   0.0000000087  0.000043  0.000104  0.000132  0.000005
 11   -913.36293390  -0.0000000811  0.000007  0.000026  0.000056  0.000002
 12   -913.36293390   0.0000000011  0.000007  0.000010  0.000026  0.000001
                  ***Gradient check signals convergence***
              ***Rediagonalizing the Fockian in SOSCF/NRSCF***

               *****************************************************
               *                     SUCCESS                       *
               *           SCF CONVERGED AFTER  13 CYCLES          *
               *****************************************************

Setting up the final grid:

General Integration Accuracy     IntAcc      ...  4.670
Radial Grid Type                 RadialGrid  ... Gauss-Chebyshev
Angular Grid (max. acc.)         AngularGrid ... Lebedev-302
Angular grid pruning method      GridPruning ... 3 (G Style)
Weight generation scheme         WeightScheme... Becke
Basis function cutoff            BFCut       ...    1.0000e-11
Integration weight cutoff        WCut        ...    1.0000e-14
Grids for H and He will be reduced by one unit

# of grid points (after initial pruning)     ... 210180 (   0.0 sec)
# of grid points (after weights+screening)   ... 181699 (   0.2 sec)
nearest neighbour list constructed           ...    0.0 sec
Grid point re-assignment to atoms done       ...    0.0 sec
Grid point division into batches done        ...    0.6 sec
Reduced shell lists constructed in    0.7 sec

Total number of grid points                  ...   181699
Total number of batches                      ...     2863
Average number of points per batch           ...       63
Average number of grid points per atom       ...     4326
Average number of shells per batch           ...    45.12 (50.14%)
Average number of basis functions per batch  ...    76.22 (55.23%)
Average number of large shells per batch     ...    31.26 (69.27%)
Average number of large basis fcns per batch ...    54.43 (71.41%)
Maximum spatial batch extension              ...  13.48,  5.43,  6.14 au
Average spatial batch extension              ...   0.06,  0.05,  0.05 au

Final grid set up in    0.8 sec
Final integration                            ... done (   0.1 sec)
Change in XC energy                          ...    -0.001245723
Integrated number of electrons               ...   161.999902742
Previous integrated no of electrons          ...   161.988400894

----------------
TOTAL SCF ENERGY
----------------

Total Energy       :         -913.36417963 Eh          -24853.90288 eV

Components:
Nuclear Repulsion  :         1796.51886975 Eh           48885.76375 eV
Electronic Energy  :        -2709.88304938 Eh          -73739.66663 eV
One Electron Energy:        -4809.97613566 Eh         -130886.10477 eV
Two Electron Energy:         2100.09308628 Eh           57146.43815 eV

Virial components:
Potential Energy   :        -1812.29795896 Eh          -49315.13460 eV
Kinetic Energy     :          898.93377933 Eh           24461.23172 eV
Virial Ratio       :            2.01605280


DFT components:
N(Alpha)           :       80.999951370776 electrons
N(Beta)            :       80.999951370776 electrons
N(Total)           :      161.999902741553 electrons
E(X)               :     -103.642570557050 Eh       
E(C)               :       -6.391939328842 Eh       
E(XC)              :     -110.034509885892 Eh       
DFET-embed. en.    :        0.000000000000 Eh       

---------------
SCF CONVERGENCE
---------------

  Last Energy change         ...   -5.5970e-09  Tolerance :   1.0000e-08
  Last MAX-Density change    ...    3.9114e-06  Tolerance :   1.0000e-07
  Last RMS-Density change    ...    1.2892e-07  Tolerance :   5.0000e-09
  Last Orbital Gradient      ...    3.8897e-07  Tolerance :   1.0000e-05
  Last Orbital Rotation      ...    1.9327e-06  Tolerance :   1.0000e-05

             **** THE GBW FILE WAS UPDATED (dummy4.gbw) ****
             **** DENSITY FILE WAS UPDATED (dummy4.scfp) ****
             **** ENERGY FILE WAS UPDATED (dummy4.en.tmp) ****
             **** THE GBW FILE WAS UPDATED (dummy4.gbw) ****
             **** DENSITY FILE WAS UPDATED (dummy4.scfp) ****
----------------
ORBITAL ENERGIES
----------------

  NO   OCC          E(Eh)            E(eV) 
   0   2.0000     -10.018723      -272.6233 
   1   2.0000     -10.018180      -272.6085 
   2   2.0000     -10.017553      -272.5915 
   3   2.0000     -10.017339      -272.5856 
   4   2.0000     -10.016739      -272.5693 
   5   2.0000     -10.016577      -272.5649 
   6   2.0000     -10.001985      -272.1678 
   7   2.0000     -10.001953      -272.1670 
   8   2.0000     -10.001837      -272.1638 
   9   2.0000     -10.001727      -272.1608 
  10   2.0000     -10.001726      -272.1608 
  11   2.0000     -10.001381      -272.1514 
  12   2.0000     -10.001320      -272.1498 
  13   2.0000     -10.001194      -272.1463 
  14   2.0000     -10.001168      -272.1456 
  15   2.0000     -10.001149      -272.1451 
  16   2.0000     -10.001126      -272.1445 
  17   2.0000     -10.001008      -272.1413 
  18   2.0000     -10.000243      -272.1205 
  19   2.0000     -10.000209      -272.1195 
  20   2.0000      -9.999437      -272.0985 
  21   2.0000      -9.998907      -272.0841 
  22   2.0000      -9.998773      -272.0804 
  23   2.0000      -9.998706      -272.0786 
  24   2.0000      -0.828592       -22.5471 
  25   2.0000      -0.818863       -22.2824 
  26   2.0000      -0.804781       -21.8992 
  27   2.0000      -0.791578       -21.5399 
  28   2.0000      -0.742958       -20.2169 
  29   2.0000      -0.715663       -19.4742 
  30   2.0000      -0.707941       -19.2641 
  31   2.0000      -0.702499       -19.1160 
  32   2.0000      -0.695940       -18.9375 
  33   2.0000      -0.691800       -18.8248 
  34   2.0000      -0.684173       -18.6173 
  35   2.0000      -0.654231       -17.8025 
  36   2.0000      -0.589416       -16.0388 
  37   2.0000      -0.580849       -15.8057 
  38   2.0000      -0.564792       -15.3688 
  39   2.0000      -0.563419       -15.3314 
  40   2.0000      -0.544934       -14.8284 
  41   2.0000      -0.539807       -14.6889 
  42   2.0000      -0.529306       -14.4032 
  43   2.0000      -0.525240       -14.2925 
  44   2.0000      -0.491925       -13.3860 
  45   2.0000      -0.480252       -13.0683 
  46   2.0000      -0.459262       -12.4971 
  47   2.0000      -0.440146       -11.9770 
  48   2.0000      -0.437464       -11.9040 
  49   2.0000      -0.419530       -11.4160 
  50   2.0000      -0.404941       -11.0190 
  51   2.0000      -0.402373       -10.9491 
  52   2.0000      -0.399209       -10.8630 
  53   2.0000      -0.391223       -10.6457 
  54   2.0000      -0.382174       -10.3995 
  55   2.0000      -0.379832       -10.3358 
  56   2.0000      -0.375833       -10.2269 
  57   2.0000      -0.372927       -10.1478 
  58   2.0000      -0.369469       -10.0538 
  59   2.0000      -0.367559       -10.0018 
  60   2.0000      -0.364325        -9.9138 
  61   2.0000      -0.350858        -9.5473 
  62   2.0000      -0.342299        -9.3144 
  63   2.0000      -0.331820        -9.0293 
  64   2.0000      -0.327091        -8.9006 
  65   2.0000      -0.309758        -8.4290 
  66   2.0000      -0.295244        -8.0340 
  67   2.0000      -0.291793        -7.9401 
  68   2.0000      -0.286990        -7.8094 
  69   2.0000      -0.280750        -7.6396 
  70   2.0000      -0.277718        -7.5571 
  71   2.0000      -0.273588        -7.4447 
  72   2.0000      -0.271413        -7.3855 
  73   2.0000      -0.231207        -6.2915 
  74   2.0000      -0.199657        -5.4330 
  75   2.0000      -0.196333        -5.3425 
  76   2.0000      -0.192912        -5.2494 
  77   2.0000      -0.188332        -5.1248 
  78   2.0000      -0.186278        -5.0689 
  79   2.0000      -0.159445        -4.3387 
  80   2.0000      -0.125014        -3.4018 
  81   0.0000       0.028093         0.7645 
  82   0.0000       0.061891         1.6841 
  83   0.0000       0.083105         2.2614 
  84   0.0000       0.089772         2.4428 
  85   0.0000       0.099824         2.7163 
  86   0.0000       0.100346         2.7306 
  87   0.0000       0.107484         2.9248 
  88   0.0000       0.125019         3.4019 
  89   0.0000       0.204295         5.5592 
  90   0.0000       0.209019         5.6877 
  91   0.0000       0.226005         6.1499 
  92   0.0000       0.226616         6.1665 
  93   0.0000       0.358449         9.7539 
  94   0.0000       0.360334         9.8052 
  95   0.0000       0.362618         9.8673 
  96   0.0000       0.379374        10.3233 
  97   0.0000       0.386265        10.5108 
  98   0.0000       0.391059        10.6413 
  99   0.0000       0.413153        11.2425 
 100   0.0000       0.421960        11.4821 
 101   0.0000       0.426589        11.6081 
 102   0.0000       0.433091        11.7850 
 103   0.0000       0.435363        11.8468 
 104   0.0000       0.439177        11.9506 
 105   0.0000       0.447018        12.1640 
 106   0.0000       0.455130        12.3847 
 107   0.0000       0.464234        12.6325 
 108   0.0000       0.464593        12.6422 
 109   0.0000       0.470909        12.8141 
 110   0.0000       0.486408        13.2358 
 111   0.0000       0.489712        13.3257 
 112   0.0000       0.497071        13.5260 
 113   0.0000       0.513664        13.9775 
 114   0.0000       0.528224        14.3737 
 115   0.0000       0.538805        14.6616 
 116   0.0000       0.555348        15.1118 
 117   0.0000       0.568361        15.4659 
 118   0.0000       0.569225        15.4894 
 119   0.0000       0.584452        15.9038 
 120   0.0000       0.589696        16.0465 
 121   0.0000       0.598559        16.2876 
 122   0.0000       0.606231        16.4964 
 123   0.0000       0.613844        16.7035 
 124   0.0000       0.618351        16.8262 
 125   0.0000       0.619953        16.8698 
 126   0.0000       0.620860        16.8945 
 127   0.0000       0.629742        17.1361 
 128   0.0000       0.640436        17.4271 
 129   0.0000       0.645381        17.5617 
 130   0.0000       0.718058        19.5394 
 131   0.0000       0.743949        20.2439 
 132   0.0000       0.768814        20.9205 
 133   0.0000       0.773383        21.0448 
 134   0.0000       0.792165        21.5559 
 135   0.0000       0.794466        21.6185 
 136   0.0000       0.813320        22.1315 
 137   0.0000       0.825796        22.4711 

                    ********************************
                    * MULLIKEN POPULATION ANALYSIS *
                    ********************************

-----------------------
MULLIKEN ATOMIC CHARGES
-----------------------
   0 C :   -0.003789
   1 C :   -0.001963
   2 C :   -0.077930
   3 C :   -0.080880
   4 C :   -0.079448
   5 C :   -0.080048
   6 C :   -0.082434
   7 C :   -0.077202
   8 C :   -0.077341
   9 C :   -0.004194
  10 C :   -0.003858
  11 C :   -0.080756
  12 C :   -0.079031
  13 C :   -0.004441
  14 C :   -0.002220
  15 C :   -0.079129
  16 C :   -0.080200
  17 C :   -0.079551
  18 C :   -0.080569
  19 C :   -0.080184
  20 C :   -0.077424
  21 C :   -0.077450
  22 C :   -0.080612
  23 C :   -0.080979
  24 H :    0.080947
  25 H :    0.079963
  26 H :    0.079565
  27 H :    0.079118
  28 H :    0.083162
  29 H :    0.082662
  30 H :    0.080440
  31 H :    0.080560
  32 H :    0.079523
  33 H :    0.079578
  34 H :    0.079480
  35 H :    0.078639
  36 H :    0.081733
  37 H :    0.082019
  38 H :    0.080448
  39 H :    0.080740
  40 H :    0.081349
  41 H :    0.081706
Sum of atomic charges:   -0.0000000

--------------------------------
MULLIKEN REDUCED ORBITAL CHARGES
--------------------------------
  0 C s       :     3.133093  s :     3.133093
      pz      :     0.953409  p :     2.870696
      px      :     0.986834
      py      :     0.930453
  1 C s       :     3.134784  s :     3.134784
      pz      :     0.954685  p :     2.867180
      px      :     0.975989
      py      :     0.936505
  2 C s       :     3.141650  s :     3.141650
      pz      :     0.974734  p :     2.936280
      px      :     0.969979
      py      :     0.991567
  3 C s       :     3.142409  s :     3.142409
      pz      :     0.978191  p :     2.938470
      px      :     0.964470
      py      :     0.995809
  4 C s       :     3.151115  s :     3.151115
      pz      :     0.952156  p :     2.928333
      px      :     0.976358
      py      :     0.999820
  5 C s       :     3.144379  s :     3.144379
      pz      :     0.983186  p :     2.935669
      px      :     0.957074
      py      :     0.995409
  6 C s       :     3.140578  s :     3.140578
      pz      :     0.972807  p :     2.941856
      px      :     0.975673
      py      :     0.993377
  7 C s       :     3.142806  s :     3.142806
      pz      :     0.976102  p :     2.934397
      px      :     0.997514
      py      :     0.960781
  8 C s       :     3.142570  s :     3.142570
      pz      :     0.977581  p :     2.934771
      px      :     0.999648
      py      :     0.957542
  9 C s       :     3.133003  s :     3.133003
      pz      :     0.953863  p :     2.871192
      px      :     0.959572
      py      :     0.957756
 10 C s       :     3.133208  s :     3.133208
      pz      :     0.952849  p :     2.870649
      px      :     0.950110
      py      :     0.967690
 11 C s       :     3.141406  s :     3.141406
      pz      :     0.974691  p :     2.939350
      px      :     0.955547
      py      :     1.009112
 12 C s       :     3.141831  s :     3.141831
      pz      :     0.972855  p :     2.937200
      px      :     0.957008
      py      :     1.007337
 13 C s       :     3.132836  s :     3.132836
      pz      :     0.953307  p :     2.871604
      px      :     0.934644
      py      :     0.983654
 14 C s       :     3.134690  s :     3.134690
      pz      :     0.955124  p :     2.867530
      px      :     0.942817
      py      :     0.969589
 15 C s       :     3.140398  s :     3.140398
      pz      :     0.970826  p :     2.938731
      px      :     0.997017
      py      :     0.970888
 16 C s       :     3.143056  s :     3.143056
      pz      :     0.980247  p :     2.937144
      px      :     0.999330
      py      :     0.957566
 17 C s       :     3.151949  s :     3.151949
      pz      :     0.949332  p :     2.927602
      px      :     1.002077
      py      :     0.976192
 18 C s       :     3.143184  s :     3.143184
      pz      :     0.977300  p :     2.937384
      px      :     1.000422
      py      :     0.959663
 19 C s       :     3.139990  s :     3.139990
      pz      :     0.974390  p :     2.940194
      px      :     0.999459
      py      :     0.966345
 20 C s       :     3.141440  s :     3.141440
      pz      :     0.978297  p :     2.935983
      px      :     0.956276
      py      :     1.001411
 21 C s       :     3.142131  s :     3.142131
      pz      :     0.974014  p :     2.935319
      px      :     0.959390
      py      :     1.001915
 22 C s       :     3.141903  s :     3.141903
      pz      :     0.973586  p :     2.938710
      px      :     1.003710
      py      :     0.961413
 23 C s       :     3.141949  s :     3.141949
      pz      :     0.974520  p :     2.939030
      px      :     1.009760
      py      :     0.954750
 24 H s       :     0.919053  s :     0.919053
 25 H s       :     0.920037  s :     0.920037
 26 H s       :     0.920435  s :     0.920435
 27 H s       :     0.920882  s :     0.920882
 28 H s       :     0.916838  s :     0.916838
 29 H s       :     0.917338  s :     0.917338
 30 H s       :     0.919560  s :     0.919560
 31 H s       :     0.919440  s :     0.919440
 32 H s       :     0.920477  s :     0.920477
 33 H s       :     0.920422  s :     0.920422
 34 H s       :     0.920520  s :     0.920520
 35 H s       :     0.921361  s :     0.921361
 36 H s       :     0.918267  s :     0.918267
 37 H s       :     0.917981  s :     0.917981
 38 H s       :     0.919552  s :     0.919552
 39 H s       :     0.919260  s :     0.919260
 40 H s       :     0.918651  s :     0.918651
 41 H s       :     0.918294  s :     0.918294


                     *******************************
                     * LOEWDIN POPULATION ANALYSIS *
                     *******************************

----------------------
LOEWDIN ATOMIC CHARGES
----------------------
   0 C :    0.003065
   1 C :    0.006950
   2 C :   -0.045446
   3 C :   -0.043893
   4 C :   -0.044477
   5 C :   -0.042725
   6 C :   -0.050561
   7 C :   -0.044093
   8 C :   -0.044293
   9 C :    0.002754
  10 C :    0.003281
  11 C :   -0.048114
  12 C :   -0.046241
  13 C :    0.002266
  14 C :    0.006661
  15 C :   -0.047344
  16 C :   -0.043090
  17 C :   -0.044474
  18 C :   -0.043479
  19 C :   -0.048501
  20 C :   -0.044819
  21 C :   -0.044570
  22 C :   -0.047766
  23 C :   -0.048090
  24 H :    0.044451
  25 H :    0.043025
  26 H :    0.042800
  27 H :    0.043036
  28 H :    0.046334
  29 H :    0.046009
  30 H :    0.044289
  31 H :    0.044489
  32 H :    0.043548
  33 H :    0.042702
  34 H :    0.042687
  35 H :    0.042953
  36 H :    0.045541
  37 H :    0.045484
  38 H :    0.044289
  39 H :    0.044477
  40 H :    0.045274
  41 H :    0.045612

-------------------------------
LOEWDIN REDUCED ORBITAL CHARGES
-------------------------------
  0 C s       :     3.027268  s :     3.027268
      pz      :     1.001914  p :     2.969667
      px      :     0.992325
      py      :     0.975429
  1 C s       :     3.028296  s :     3.028296
      pz      :     1.003071  p :     2.964754
      px      :     0.993838
      py      :     0.967846
  2 C s       :     3.022049  s :     3.022049
      pz      :     1.010186  p :     3.023397
      px      :     1.005274
      py      :     1.007937
  3 C s       :     3.020325  s :     3.020325
      pz      :     1.011915  p :     3.023568
      px      :     1.004181
      py      :     1.007472
  4 C s       :     3.029486  s :     3.029486
      pz      :     1.003570  p :     3.014991
      px      :     1.004185
      py      :     1.007236
  5 C s       :     3.022501  s :     3.022501
      pz      :     1.012453  p :     3.020225
      px      :     1.001200
      py      :     1.006572
  6 C s       :     3.021114  s :     3.021114
      pz      :     1.004383  p :     3.029447
      px      :     1.007773
      py      :     1.017291
  7 C s       :     3.022906  s :     3.022906
      pz      :     1.010760  p :     3.021187
      px      :     1.001738
      py      :     1.008690
  8 C s       :     3.022696  s :     3.022696
      pz      :     1.011676  p :     3.021596
      px      :     1.005445
      py      :     1.004475
  9 C s       :     3.027176  s :     3.027176
      pz      :     1.002162  p :     2.970070
      px      :     0.977953
      py      :     0.989955
 10 C s       :     3.027273  s :     3.027273
      pz      :     1.003112  p :     2.969446
      px      :     0.985987
      py      :     0.980348
 11 C s       :     3.021683  s :     3.021683
      pz      :     1.006951  p :     3.026431
      px      :     1.003992
      py      :     1.015488
 12 C s       :     3.022173  s :     3.022173
      pz      :     1.006574  p :     3.024068
      px      :     1.006530
      py      :     1.010964
 13 C s       :     3.027299  s :     3.027299
      pz      :     1.003128  p :     2.970435
      px      :     0.977523
      py      :     0.989784
 14 C s       :     3.028376  s :     3.028376
      pz      :     1.006327  p :     2.964962
      px      :     0.967605
      py      :     0.991030
 15 C s       :     3.021178  s :     3.021178
      pz      :     1.008457  p :     3.026166
      px      :     1.009990
      py      :     1.007719
 16 C s       :     3.021101  s :     3.021101
      pz      :     1.013293  p :     3.021989
      px      :     1.004898
      py      :     1.003798
 17 C s       :     3.030162  s :     3.030162
      pz      :     1.004809  p :     3.014313
      px      :     1.004282
      py      :     1.005222
 18 C s       :     3.021330  s :     3.021330
      pz      :     1.012047  p :     3.022149
      px      :     1.005704
      py      :     1.004398
 19 C s       :     3.020730  s :     3.020730
      pz      :     1.009078  p :     3.027771
      px      :     1.013348
      py      :     1.005346
 20 C s       :     3.021818  s :     3.021818
      pz      :     1.012780  p :     3.023001
      px      :     1.007059
      py      :     1.003162
 21 C s       :     3.022368  s :     3.022368
      pz      :     1.010541  p :     3.022203
      px      :     1.006766
      py      :     1.004896
 22 C s       :     3.022105  s :     3.022105
      pz      :     1.005029  p :     3.025662
      px      :     1.015060
      py      :     1.005572
 23 C s       :     3.022064  s :     3.022064
      pz      :     1.005543  p :     3.026026
      px      :     1.014764
      py      :     1.005718
 24 H s       :     0.955549  s :     0.955549
 25 H s       :     0.956975  s :     0.956975
 26 H s       :     0.957200  s :     0.957200
 27 H s       :     0.956964  s :     0.956964
 28 H s       :     0.953666  s :     0.953666
 29 H s       :     0.953991  s :     0.953991
 30 H s       :     0.955711  s :     0.955711
 31 H s       :     0.955511  s :     0.955511
 32 H s       :     0.956452  s :     0.956452
 33 H s       :     0.957298  s :     0.957298
 34 H s       :     0.957313  s :     0.957313
 35 H s       :     0.957047  s :     0.957047
 36 H s       :     0.954459  s :     0.954459
 37 H s       :     0.954516  s :     0.954516
 38 H s       :     0.955711  s :     0.955711
 39 H s       :     0.955523  s :     0.955523
 40 H s       :     0.954726  s :     0.954726
 41 H s       :     0.954388  s :     0.954388


                      *****************************
                      * MAYER POPULATION ANALYSIS *
                      *****************************

  NA   - Mulliken gross atomic population
  ZA   - Total nuclear charge
  QA   - Mulliken gross atomic charge
  VA   - Mayer's total valence
  BVA  - Mayer's bonded valence
  FA   - Mayer's free valence

  ATOM       NA         ZA         QA         VA         BVA        FA
  0 C      6.0038     6.0000    -0.0038     3.9721     3.9721    -0.0000
  1 C      6.0020     6.0000    -0.0020     3.9721     3.9721    -0.0000
  2 C      6.0779     6.0000    -0.0779     3.9719     3.9719    -0.0000
  3 C      6.0809     6.0000    -0.0809     3.9719     3.9719    -0.0000
  4 C      6.0794     6.0000    -0.0794     3.9681     3.9681    -0.0000
  5 C      6.0800     6.0000    -0.0800     3.9718     3.9718     0.0000
  6 C      6.0824     6.0000    -0.0824     3.9722     3.9722    -0.0000
  7 C      6.0772     6.0000    -0.0772     3.9714     3.9714    -0.0000
  8 C      6.0773     6.0000    -0.0773     3.9715     3.9715     0.0000
  9 C      6.0042     6.0000    -0.0042     3.9722     3.9722     0.0000
 10 C      6.0039     6.0000    -0.0039     3.9722     3.9722    -0.0000
 11 C      6.0808     6.0000    -0.0808     3.9721     3.9721    -0.0000
 12 C      6.0790     6.0000    -0.0790     3.9722     3.9722    -0.0000
 13 C      6.0044     6.0000    -0.0044     3.9723     3.9723     0.0000
 14 C      6.0022     6.0000    -0.0022     3.9723     3.9723    -0.0000
 15 C      6.0791     6.0000    -0.0791     3.9725     3.9725    -0.0000
 16 C      6.0802     6.0000    -0.0802     3.9720     3.9720     0.0000
 17 C      6.0796     6.0000    -0.0796     3.9677     3.9677    -0.0000
 18 C      6.0806     6.0000    -0.0806     3.9720     3.9720    -0.0000
 19 C      6.0802     6.0000    -0.0802     3.9727     3.9727    -0.0000
 20 C      6.0774     6.0000    -0.0774     3.9721     3.9721    -0.0000
 21 C      6.0774     6.0000    -0.0774     3.9717     3.9717     0.0000
 22 C      6.0806     6.0000    -0.0806     3.9720     3.9720     0.0000
 23 C      6.0810     6.0000    -0.0810     3.9719     3.9719     0.0000
 24 H      0.9191     1.0000     0.0809     0.9934     0.9934    -0.0000
 25 H      0.9200     1.0000     0.0800     0.9936     0.9936     0.0000
 26 H      0.9204     1.0000     0.0796     0.9937     0.9937     0.0000
 27 H      0.9209     1.0000     0.0791     0.9937     0.9937    -0.0000
 28 H      0.9168     1.0000     0.0832     0.9931     0.9931     0.0000
 29 H      0.9173     1.0000     0.0827     0.9932     0.9932     0.0000
 30 H      0.9196     1.0000     0.0804     0.9935     0.9935    -0.0000
 31 H      0.9194     1.0000     0.0806     0.9935     0.9935    -0.0000
 32 H      0.9205     1.0000     0.0795     0.9937     0.9937    -0.0000
 33 H      0.9204     1.0000     0.0796     0.9937     0.9937    -0.0000
 34 H      0.9205     1.0000     0.0795     0.9937     0.9937    -0.0000
 35 H      0.9214     1.0000     0.0786     0.9938     0.9938    -0.0000
 36 H      0.9183     1.0000     0.0817     0.9933     0.9933     0.0000
 37 H      0.9180     1.0000     0.0820     0.9933     0.9933    -0.0000
 38 H      0.9196     1.0000     0.0804     0.9935     0.9935     0.0000
 39 H      0.9193     1.0000     0.0807     0.9935     0.9935    -0.0000
 40 H      0.9187     1.0000     0.0813     0.9934     0.9934    -0.0000
 41 H      0.9183     1.0000     0.0817     0.9933     0.9933    -0.0000

  Mayer bond orders larger than 0.100000
B(  0-C ,  1-C ) :   1.0536 B(  0-C ,  7-C ) :   1.3612 B(  0-C ,  9-C ) :   0.1081 
B(  0-C , 23-C ) :   1.3466 B(  1-C ,  2-C ) :   1.3715 B(  1-C ,  4-C ) :   0.1156 
B(  1-C ,  6-C ) :   1.3606 B(  2-C ,  3-C ) :   1.4517 B(  2-C ,  5-C ) :   0.1030 
B(  2-C , 24-H ) :   0.9584 B(  3-C ,  4-C ) :   1.4191 B(  3-C ,  6-C ) :   0.1037 
B(  3-C , 25-H ) :   0.9626 B(  4-C ,  5-C ) :   1.4071 B(  4-C , 40-H ) :   0.9634 
B(  5-C ,  6-C ) :   1.4651 B(  5-C , 26-H ) :   0.9629 B(  6-C , 27-H ) :   0.9601 
B(  7-C ,  8-C ) :   1.4699 B(  7-C , 28-H ) :   0.9574 B(  8-C ,  9-C ) :   1.3596 
B(  8-C , 29-H ) :   0.9574 B(  9-C , 10-C ) :   1.0595 B(  9-C , 22-C ) :   1.3440 
B( 10-C , 11-C ) :   1.3445 B( 10-C , 13-C ) :   0.1074 B( 10-C , 21-C ) :   1.3560 
B( 11-C , 12-C ) :   1.4906 B( 11-C , 30-H ) :   0.9592 B( 12-C , 13-C ) :   1.3449 
B( 12-C , 31-H ) :   0.9585 B( 13-C , 14-C ) :   1.0623 B( 13-C , 20-C ) :   1.3561 
B( 14-C , 15-C ) :   1.3649 B( 14-C , 17-C ) :   0.1154 B( 14-C , 19-C ) :   1.3588 
B( 15-C , 16-C ) :   1.4591 B( 15-C , 18-C ) :   0.1011 B( 15-C , 32-H ) :   0.9583 
B( 16-C , 17-C ) :   1.4127 B( 16-C , 19-C ) :   0.1029 B( 16-C , 33-H ) :   0.9628 
B( 17-C , 18-C ) :   1.4088 B( 17-C , 41-H ) :   0.9633 B( 18-C , 19-C ) :   1.4652 
B( 18-C , 34-H ) :   0.9626 B( 19-C , 35-H ) :   0.9588 B( 20-C , 21-C ) :   1.4758 
B( 20-C , 36-H ) :   0.9570 B( 21-C , 37-H ) :   0.9576 B( 22-C , 23-C ) :   1.4902 
B( 22-C , 38-H ) :   0.9592 B( 23-C , 39-H ) :   0.9593 

-------
TIMINGS
-------

Total SCF time: 0 days 0 hours 0 min 6 sec 

Total time                  ....       6.350 sec
Sum of individual times     ....       5.932 sec  ( 93.4%)

Fock matrix formation       ....       4.465 sec  ( 70.3%)
  XC integration            ....       0.448 sec  ( 10.0% of F)
    Basis function eval.    ....       0.160 sec  ( 35.6% of XC)
    Density eval.           ....       0.037 sec  (  8.2% of XC)
    XC-Functional eval.     ....       0.020 sec  (  4.4% of XC)
    XC-Potential eval.      ....       0.032 sec  (  7.1% of XC)
Diagonalization             ....       0.015 sec  (  0.2%)
Density matrix formation    ....       0.005 sec  (  0.1%)
Population analysis         ....       0.015 sec  (  0.2%)
Initial guess               ....       0.281 sec  (  4.4%)
Orbital Transformation      ....       0.000 sec  (  0.0%)
Orbital Orthonormalization  ....       0.000 sec  (  0.0%)
DIIS solution               ....       0.007 sec  (  0.1%)
SOSCF solution              ....       0.020 sec  (  0.3%)
Grid generation             ....       1.123 sec  ( 17.7%)

-------------------------   --------------------
FINAL SINGLE POINT ENERGY      -913.364179628853
-------------------------   --------------------



           ************************************************************
           *        Program running with 28 parallel MPI-processes    *
           *              working on a common directory               *
           ************************************************************
------------------------------------------------------------------------------
                         ORCA SCF GRADIENT CALCULATION
------------------------------------------------------------------------------

Gradient of the Kohn-Sham DFT energy:
Kohn-Sham wavefunction type      ... RKS
Hartree-Fock exchange scaling    ...    0.200
Number of operators              ...    1
Number of atoms                  ...   42
Basis set dimensions             ...  138
Integral neglect threshold       ... 2.5e-11
Integral primitive cutoff        ... 2.5e-12

Nuclear repulsion gradient       ... done
One Electron Gradient            ... done
Pre-screening matrix             ... done
Starting the two electron gradient:
Two electron gradient done
Exchange-correlation gradient    ... done

------------------
CARTESIAN GRADIENT
------------------

   1   C   :    0.009543413   -0.002503425   -0.000319184
   2   C   :    0.004250774   -0.006414793    0.000139595
   3   C   :   -0.000791597    0.006874334    0.006026331
   4   C   :   -0.019428115    0.002437371   -0.002791368
   5   C   :    0.018637552   -0.018582360    0.005488945
   6   C   :   -0.013403070    0.001518211   -0.001762350
   7   C   :    0.001815532    0.002272735   -0.008375918
   8   C   :   -0.000184767    0.000096073   -0.007419745
   9   C   :    0.000110292   -0.000572596   -0.007761163
  10   C   :    0.005104558    0.006367076   -0.000885501
  11   C   :    0.005681822    0.005560190   -0.000004863
  12   C   :   -0.001459369    0.003726081   -0.007045415
  13   C   :    0.001638633    0.003576725   -0.006761728
  14   C   :   -0.003737772    0.008992646    0.001043962
  15   C   :   -0.006240859    0.003535268   -0.000250658
  16   C   :    0.005367564    0.002193371   -0.007298451
  17   C   :    0.004090913   -0.017586170   -0.000564973
  18   C   :   -0.022097103    0.018194246   -0.000641388
  19   C   :    0.004599881   -0.015791355    0.000135003
  20   C   :    0.004105270    0.000667167    0.008130554
  21   C   :    0.000913875    0.000279461    0.007273583
  22   C   :   -0.000121229    0.000715211    0.007857522
  23   C   :    0.004590152   -0.000794362    0.006863965
  24   C   :    0.003685458    0.002633144    0.006465661
  25   H   :    0.003979846    0.004950969    0.007707583
  26   H   :   -0.005419103   -0.004429385    0.010632136
  27   H   :   -0.003038636   -0.006276044   -0.007440292
  28   H   :    0.004602742    0.001295914   -0.007892730
  29   H   :   -0.001349170   -0.005896551   -0.007949187
  30   H   :   -0.003611898    0.004652160   -0.008119214
  31   H   :    0.004327611    0.000708907   -0.008116432
  32   H   :   -0.005107379    0.001708589   -0.007792692
  33   H   :    0.003039965    0.005331457   -0.007589272
  34   H   :   -0.003986231   -0.005375748   -0.009460634
  35   H   :   -0.006063700   -0.005516037    0.008444004
  36   H   :    0.002348936    0.004244787    0.008205733
  37   H   :   -0.005310335   -0.001465145    0.008394191
  38   H   :    0.005526159   -0.002337682    0.007952887
  39   H   :    0.000697537    0.004985555    0.007739543
  40   H   :    0.002688909   -0.003944009    0.007867022
[...]
   5 C :   -0.079049
   6 C :   -0.077743
   7 C :   -0.078475
   8 C :   -0.078265
   9 C :   -0.003688
  10 C :   -0.003736
  11 C :   -0.078243
  12 C :   -0.078493
  13 C :   -0.003440
  14 C :   -0.003693
  15 C :   -0.077748
  16 C :   -0.079023
  17 C :   -0.078167
  18 C :   -0.079020
  19 C :   -0.077692
  20 C :   -0.078441
  21 C :   -0.078320
  22 C :   -0.078286
  23 C :   -0.078431
  24 H :    0.079299
  25 H :    0.079484
  26 H :    0.079459
  27 H :    0.079366
  28 H :    0.079811
  29 H :    0.079661
  30 H :    0.079666
  31 H :    0.079864
  32 H :    0.079338
  33 H :    0.079432
  34 H :    0.079457
  35 H :    0.079272
  36 H :    0.079780
  37 H :    0.079771
  38 H :    0.079705
  39 H :    0.079758
  40 H :    0.079463
  41 H :    0.079442
Sum of atomic charges:   -0.0000000

--------------------------------
MULLIKEN REDUCED ORBITAL CHARGES
--------------------------------
  0 C s       :     3.139401  s :     3.139401
      pz      :     0.949681  p :     2.863999
      px      :     0.953387
      py      :     0.960931
  1 C s       :     3.139258  s :     3.139258
      pz      :     0.949061  p :     2.864488
      px      :     0.954097
      py      :     0.961330
  2 C s       :     3.150766  s :     3.150766
      pz      :     0.970610  p :     2.926942
      px      :     0.979216
      py      :     0.977116
  3 C s       :     3.147983  s :     3.147983
      pz      :     0.975448  p :     2.931067
      px      :     0.971694
      py      :     0.983925
  4 C s       :     3.148734  s :     3.148734
      pz      :     0.951679  p :     2.929436
      px      :     0.988220
      py      :     0.989537
  5 C s       :     3.147997  s :     3.147997
      pz      :     0.976133  p :     2.931052
      px      :     0.979263
      py      :     0.975656
  6 C s       :     3.150811  s :     3.150811
      pz      :     0.969655  p :     2.926931
      px      :     0.972853
      py      :     0.984423
  7 C s       :     3.149879  s :     3.149879
      pz      :     0.972040  p :     2.928596
      px      :     0.971160
      py      :     0.985396
  8 C s       :     3.149916  s :     3.149916
      pz      :     0.970873  p :     2.928348
      px      :     0.980610
      py      :     0.976865
  9 C s       :     3.138860  s :     3.138860
      pz      :     0.949871  p :     2.864828
      px      :     0.953598
      py      :     0.961359
 10 C s       :     3.138856  s :     3.138856
      pz      :     0.948965  p :     2.864880
      px      :     0.954325
      py      :     0.961590
 11 C s       :     3.149978  s :     3.149978
      pz      :     0.971247  p :     2.928265
      px      :     0.979633
      py      :     0.977386
 12 C s       :     3.149939  s :     3.149939
      pz      :     0.970463  p :     2.928555
      px      :     0.972965
      py      :     0.985126
 13 C s       :     3.139407  s :     3.139407
      pz      :     0.948807  p :     2.864033
      px      :     0.954029
      py      :     0.961197
 14 C s       :     3.139256  s :     3.139256
      pz      :     0.949999  p :     2.864437
      px      :     0.953301
      py      :     0.961137
 15 C s       :     3.150778  s :     3.150778
      pz      :     0.971255  p :     2.926970
      px      :     0.970956
      py      :     0.984758
 16 C s       :     3.147968  s :     3.147968
      pz      :     0.976002  p :     2.931055
      px      :     0.979816
      py      :     0.975237
 17 C s       :     3.148722  s :     3.148722
      pz      :     0.952920  p :     2.929445
      px      :     0.987248
      py      :     0.989277
 18 C s       :     3.147982  s :     3.147982
      pz      :     0.976803  p :     2.931038
      px      :     0.970090
      py      :     0.984146
 19 C s       :     3.150781  s :     3.150781
      pz      :     0.970190  p :     2.926910
      px      :     0.980103
      py      :     0.976617
 20 C s       :     3.149882  s :     3.149882
      pz      :     0.971388  p :     2.928559
      px      :     0.979692
      py      :     0.977479
 21 C s       :     3.149941  s :     3.149941
      pz      :     0.970381  p :     2.928379
      px      :     0.972915
      py      :     0.985082
 22 C s       :     3.149979  s :     3.149979
      pz      :     0.971892  p :     2.928307
      px      :     0.971110
      py      :     0.985305
 23 C s       :     3.149916  s :     3.149916
      pz      :     0.970952  p :     2.928516
      px      :     0.980634
      py      :     0.976930
 24 H s       :     0.920701  s :     0.920701
 25 H s       :     0.920516  s :     0.920516
 26 H s       :     0.920541  s :     0.920541
 27 H s       :     0.920634  s :     0.920634
 28 H s       :     0.920189  s :     0.920189
 29 H s       :     0.920339  s :     0.920339
 30 H s       :     0.920334  s :     0.920334
 31 H s       :     0.920136  s :     0.920136
 32 H s       :     0.920662  s :     0.920662
 33 H s       :     0.920568  s :     0.920568
 34 H s       :     0.920543  s :     0.920543
 35 H s       :     0.920728  s :     0.920728
 36 H s       :     0.920220  s :     0.920220
 37 H s       :     0.920229  s :     0.920229
 38 H s       :     0.920295  s :     0.920295
 39 H s       :     0.920242  s :     0.920242
 40 H s       :     0.920537  s :     0.920537
 41 H s       :     0.920558  s :     0.920558


                     *******************************
                     * LOEWDIN POPULATION ANALYSIS *
                     *******************************

----------------------
LOEWDIN ATOMIC CHARGES
----------------------
   0 C :    0.003010
   1 C :    0.002624
   2 C :   -0.045143
   3 C :   -0.043034
   4 C :   -0.042062
   5 C :   -0.043031
   6 C :   -0.045165
   7 C :   -0.045915
   8 C :   -0.045706
   9 C :    0.002667
  10 C :    0.002628
  11 C :   -0.045683
  12 C :   -0.045910
  13 C :    0.002979
  14 C :    0.002667
  15 C :   -0.045179
  16 C :   -0.043012
  17 C :   -0.042067
  18 C :   -0.043015
  19 C :   -0.045129
  20 C :   -0.045883
  21 C :   -0.045739
  22 C :   -0.045722
  23 C :   -0.045867
  24 H :    0.043612
  25 H :    0.043357
  26 H :    0.043341
  27 H :    0.043657
  28 H :    0.044063
  29 H :    0.043952
  30 H :    0.043952
  31 H :    0.044099
  32 H :    0.043639
  33 H :    0.043322
  34 H :    0.043340
  35 H :    0.043592
  36 H :    0.044040
  37 H :    0.044029
  38 H :    0.043979
  39 H :    0.044024
  40 H :    0.043351
  41 H :    0.043338

-------------------------------
LOEWDIN REDUCED ORBITAL CHARGES
-------------------------------
  0 C s       :     3.035762  s :     3.035762
      pz      :     0.997369  p :     2.961228
      px      :     0.980677
      py      :     0.983183
  1 C s       :     3.035681  s :     3.035681
      pz      :     0.997473  p :     2.961695
      px      :     0.980729
      py      :     0.983493
  2 C s       :     3.031683  s :     3.031683
      pz      :     1.004842  p :     3.013460
      px      :     1.005071
      py      :     1.003547
  3 C s       :     3.026901  s :     3.026901
      pz      :     1.009398  p :     3.016133
      px      :     1.002235
      py      :     1.004500
  4 C s       :     3.027626  s :     3.027626
      pz      :     1.003212  p :     3.014436
      px      :     1.006199
      py      :     1.005025
  5 C s       :     3.026909  s :     3.026909
      pz      :     1.009521  p :     3.016122
      px      :     1.004895
      py      :     1.001706
  6 C s       :     3.031717  s :     3.031717
      pz      :     1.004469  p :     3.013448
      px      :     1.003727
      py      :     1.005252
  7 C s       :     3.030733  s :     3.030733
      pz      :     1.005272  p :     3.015182
      px      :     1.003422
      py      :     1.006488
  8 C s       :     3.030784  s :     3.030784
      pz      :     1.004700  p :     3.014922
      px      :     1.006665
      py      :     1.003557
  9 C s       :     3.035221  s :     3.035221
      pz      :     0.997519  p :     2.962112
      px      :     0.980957
      py      :     0.983636
 10 C s       :     3.035218  s :     3.035218
      pz      :     0.997675  p :     2.962153
      px      :     0.980885
      py      :     0.983594
 11 C s       :     3.030848  s :     3.030848
      pz      :     1.005337  p :     3.014836
      px      :     1.005865
      py      :     1.003634
 12 C s       :     3.030781  s :     3.030781
      pz      :     1.005093  p :     3.015129
      px      :     1.003827
      py      :     1.006210
 13 C s       :     3.035770  s :     3.035770
      pz      :     0.997558  p :     2.961251
      px      :     0.980540
      py      :     0.983153
 14 C s       :     3.035678  s :     3.035678
      pz      :     0.997287  p :     2.961655
      px      :     0.980809
      py      :     0.983559
 15 C s       :     3.031684  s :     3.031684
      pz      :     1.004609  p :     3.013495
      px      :     1.003342
      py      :     1.005544
 16 C s       :     3.026891  s :     3.026891
      pz      :     1.009083  p :     3.016121
      px      :     1.005360
      py      :     1.001679
 17 C s       :     3.027614  s :     3.027614
      pz      :     1.003129  p :     3.014454
      px      :     1.006244
      py      :     1.005081
 18 C s       :     3.026899  s :     3.026899
      pz      :     1.009317  p :     3.016116
      px      :     1.002117
      py      :     1.004682
 19 C s       :     3.031702  s :     3.031702
      pz      :     1.004126  p :     3.013427
      px      :     1.005848
      py      :     1.003453
 20 C s       :     3.030744  s :     3.030744
      pz      :     1.005476  p :     3.015139
      px      :     1.005938
      py      :     1.003725
 21 C s       :     3.030789  s :     3.030789
      pz      :     1.005026  p :     3.014950
      px      :     1.003774
      py      :     1.006150
 22 C s       :     3.030838  s :     3.030838
      pz      :     1.005129  p :     3.014883
      px      :     1.003373
      py      :     1.006381
 23 C s       :     3.030777  s :     3.030777
      pz      :     1.004761  p :     3.015090
      px      :     1.006705
      py      :     1.003624
 24 H s       :     0.956388  s :     0.956388
 25 H s       :     0.956643  s :     0.956643
 26 H s       :     0.956659  s :     0.956659
 27 H s       :     0.956343  s :     0.956343
 28 H s       :     0.955937  s :     0.955937
 29 H s       :     0.956048  s :     0.956048
 30 H s       :     0.956048  s :     0.956048
 31 H s       :     0.955901  s :     0.955901
 32 H s       :     0.956361  s :     0.956361
 33 H s       :     0.956678  s :     0.956678
 34 H s       :     0.956660  s :     0.956660
 35 H s       :     0.956408  s :     0.956408
 36 H s       :     0.955960  s :     0.955960
 37 H s       :     0.955971  s :     0.955971
 38 H s       :     0.956021  s :     0.956021
 39 H s       :     0.955976  s :     0.955976
 40 H s       :     0.956649  s :     0.956649
 41 H s       :     0.956662  s :     0.956662


                      *****************************
                      * MAYER POPULATION ANALYSIS *
                      *****************************

  NA   - Mulliken gross atomic population
  ZA   - Total nuclear charge
  QA   - Mulliken gross atomic charge
  VA   - Mayer's total valence
  BVA  - Mayer's bonded valence
  FA   - Mayer's free valence

  ATOM       NA         ZA         QA         VA         BVA        FA
  0 C      6.0034     6.0000    -0.0034     3.9717     3.9717     0.0000
  1 C      6.0037     6.0000    -0.0037     3.9717     3.9717    -0.0000
  2 C      6.0777     6.0000    -0.0777     3.9691     3.9691     0.0000
  3 C      6.0790     6.0000    -0.0790     3.9707     3.9707     0.0000
  4 C      6.0782     6.0000    -0.0782     3.9705     3.9705    -0.0000
  5 C      6.0790     6.0000    -0.0790     3.9707     3.9707    -0.0000
  6 C      6.0777     6.0000    -0.0777     3.9691     3.9691     0.0000
  7 C      6.0785     6.0000    -0.0785     3.9693     3.9693    -0.0000
  8 C      6.0783     6.0000    -0.0783     3.9694     3.9694    -0.0000
  9 C      6.0037     6.0000    -0.0037     3.9719     3.9719     0.0000
 10 C      6.0037     6.0000    -0.0037     3.9719     3.9719     0.0000
 11 C      6.0782     6.0000    -0.0782     3.9693     3.9693     0.0000
 12 C      6.0785     6.0000    -0.0785     3.9693     3.9693     0.0000
 13 C      6.0034     6.0000    -0.0034     3.9717     3.9717     0.0000
 14 C      6.0037     6.0000    -0.0037     3.9717     3.9717     0.0000
 15 C      6.0777     6.0000    -0.0777     3.9691     3.9691     0.0000
 16 C      6.0790     6.0000    -0.0790     3.9707     3.9707    -0.0000
 17 C      6.0782     6.0000    -0.0782     3.9705     3.9705    -0.0000
 18 C      6.0790     6.0000    -0.0790     3.9707     3.9707    -0.0000
 19 C      6.0777     6.0000    -0.0777     3.9691     3.9691    -0.0000
 20 C      6.0784     6.0000    -0.0784     3.9694     3.9694     0.0000
 21 C      6.0783     6.0000    -0.0783     3.9693     3.9693     0.0000
 22 C      6.0783     6.0000    -0.0783     3.9693     3.9693     0.0000
 23 C      6.0784     6.0000    -0.0784     3.9694     3.9694     0.0000
 24 H      0.9207     1.0000     0.0793     0.9937     0.9937     0.0000
 25 H      0.9205     1.0000     0.0795     0.9937     0.9937    -0.0000
 26 H      0.9205     1.0000     0.0795     0.9937     0.9937     0.0000
 27 H      0.9206     1.0000     0.0794     0.9937     0.9937     0.0000
 28 H      0.9202     1.0000     0.0798     0.9936     0.9936     0.0000
 29 H      0.9203     1.0000     0.0797     0.9937     0.9937     0.0000
 30 H      0.9203     1.0000     0.0797     0.9937     0.9937    -0.0000
 31 H      0.9201     1.0000     0.0799     0.9936     0.9936     0.0000
 32 H      0.9207     1.0000     0.0793     0.9937     0.9937     0.0000
 33 H      0.9206     1.0000     0.0794     0.9937     0.9937    -0.0000
 34 H      0.9205     1.0000     0.0795     0.9937     0.9937    -0.0000
 35 H      0.9207     1.0000     0.0793     0.9937     0.9937     0.0000
 36 H      0.9202     1.0000     0.0798     0.9936     0.9936    -0.0000
 37 H      0.9202     1.0000     0.0798     0.9936     0.9936     0.0000
 38 H      0.9203     1.0000     0.0797     0.9936     0.9936    -0.0000
 39 H      0.9202     1.0000     0.0798     0.9936     0.9936     0.0000
 40 H      0.9205     1.0000     0.0795     0.9937     0.9937     0.0000
 41 H      0.9206     1.0000     0.0794     0.9937     0.9937    -0.0000

  Mayer bond orders larger than 0.100000
B(  0-C ,  1-C ) :   1.0337 B(  0-C ,  7-C ) :   1.3756 B(  0-C ,  9-C ) :   0.1026 
B(  0-C , 23-C ) :   1.3750 B(  1-C ,  2-C ) :   1.3826 B(  1-C ,  4-C ) :   0.1091 
B(  1-C ,  6-C ) :   1.3822 B(  2-C ,  3-C ) :   1.4428 B(  2-C ,  5-C ) :   0.1102 
B(  2-C , 24-H ) :   0.9603 B(  3-C ,  4-C ) :   1.4239 B(  3-C ,  6-C ) :   0.1101 
B(  3-C , 25-H ) :   0.9631 B(  4-C ,  5-C ) :   1.4235 B(  4-C , 40-H ) :   0.9635 
B(  5-C ,  6-C ) :   1.4431 B(  5-C , 26-H ) :   0.9631 B(  6-C , 27-H ) :   0.9603 
B(  7-C ,  8-C ) :   1.4562 B(  7-C , 22-C ) :   0.1035 B(  7-C , 28-H ) :   0.9600 
B(  8-C ,  9-C ) :   1.3743 B(  8-C , 23-C ) :   0.1035 B(  8-C , 29-H ) :   0.9600 
B(  9-C , 10-C ) :   1.0370 B(  9-C , 22-C ) :   1.3738 B( 10-C , 11-C ) :   1.3738 
B( 10-C , 13-C ) :   0.1026 B( 10-C , 21-C ) :   1.3743 B( 11-C , 12-C ) :   1.4568 
B( 11-C , 20-C ) :   0.1035 B( 11-C , 30-H ) :   0.9600 B( 12-C , 13-C ) :   1.3751 
B( 12-C , 21-C ) :   0.1035 B( 12-C , 31-H ) :   0.9600 B( 13-C , 14-C ) :   1.0336 
B( 13-C , 20-C ) :   1.3755 B( 14-C , 15-C ) :   1.3826 B( 14-C , 17-C ) :   0.1091 
B( 14-C , 19-C ) :   1.3823 B( 15-C , 16-C ) :   1.4427 B( 15-C , 18-C ) :   0.1102 
B( 15-C , 32-H ) :   0.9604 B( 16-C , 17-C ) :   1.4239 B( 16-C , 19-C ) :   0.1102 
B( 16-C , 33-H ) :   0.9631 B( 17-C , 18-C ) :   1.4235 B( 17-C , 41-H ) :   0.9635 
B( 18-C , 19-C ) :   1.4431 B( 18-C , 34-H ) :   0.9631 B( 19-C , 35-H ) :   0.9604 
B( 20-C , 21-C ) :   1.4563 B( 20-C , 36-H ) :   0.9600 B( 21-C , 37-H ) :   0.9600 
B( 22-C , 23-C ) :   1.4569 B( 22-C , 38-H ) :   0.9600 B( 23-C , 39-H ) :   0.9600 


-------
TIMINGS
-------

Total SCF time: 0 days 0 hours 0 min 4 sec 

Total time                  ....       4.224 sec
Sum of individual times     ....       3.553 sec  ( 84.1%)

Fock matrix formation       ....       2.347 sec  ( 55.6%)
  XC integration            ....       0.257 sec  ( 10.9% of F)
    Basis function eval.    ....       0.083 sec  ( 32.5% of XC)
    Density eval.           ....       0.020 sec  (  7.9% of XC)
    XC-Functional eval.     ....       0.013 sec  (  5.0% of XC)
    XC-Potential eval.      ....       0.017 sec  (  6.5% of XC)
Diagonalization             ....       0.004 sec  (  0.1%)
Density matrix formation    ....       0.011 sec  (  0.3%)
Population analysis         ....       0.009 sec  (  0.2%)
Initial guess               ....       0.015 sec  (  0.4%)
Orbital Transformation      ....       0.000 sec  (  0.0%)
Orbital Orthonormalization  ....       0.009 sec  (  0.2%)
DIIS solution               ....       0.001 sec  (  0.0%)
SOSCF solution              ....       0.022 sec  (  0.5%)
Grid generation             ....       1.145 sec  ( 27.1%)

-------------------------   --------------------
FINAL SINGLE POINT ENERGY      -913.505079257407
-------------------------   --------------------

                                *** OPTIMIZATION RUN DONE ***

                            ***************************************
                            *     ORCA property calculations      *
                            ***************************************

                                    ---------------------
                                    Active property flags
                                    ---------------------
   (+) Dipole Moment


------------------------------------------------------------------------------
                       ORCA ELECTRIC PROPERTIES CALCULATION
------------------------------------------------------------------------------

Dipole Moment Calculation                       ... on
Quadrupole Moment Calculation                   ... off
Polarizability Calculation                      ... off
GBWName                                         ... dummy4.gbw
Electron density file                           ... dummy4.scfp
The origin for moment calculation is the CENTER OF MASS  = (-0.806483, -0.913015 -0.041636)

-------------
DIPOLE MOMENT
-------------
                                X             Y             Z
Electronic contribution:     -0.00259      -0.00267      -0.00047
Nuclear contribution   :      0.00267       0.00293       0.00053
                        -----------------------------------------
Total Dipole Moment    :      0.00008       0.00027       0.00005
                        -----------------------------------------
Magnitude (a.u.)       :      0.00029
Magnitude (Debye)      :      0.00072



--------------------
Rotational spectrum 
--------------------
 
Rotational constants in cm-1:     0.046729     0.002157     0.002075 
Rotational constants in MHz :  1400.911426    64.671395    62.217224 

 Dipole components along the rotational axes: 
x,y,z [a.u.] :    -0.000119     0.000058     0.000253 
x,y,z [Debye]:    -0.000301     0.000146     0.000643 

 

Timings for individual modules:

Sum of individual times         ...      985.284 sec (=  16.421 min)
GTO integral calculation        ...      160.080 sec (=   2.668 min)  16.2 %
SCF iterations                  ...      539.341 sec (=   8.989 min)  54.7 %
SCF Gradient evaluation         ...      232.874 sec (=   3.881 min)  23.6 %
Geometry relaxation             ...       52.989 sec (=   0.883 min)   5.4 %
                             ****ORCA TERMINATED NORMALLY****
TOTAL RUN TIME: 0 days 0 hours 17 minutes 3 seconds 513 msec
