 Entering Gaussian System, Link 0=g09
 Initial command:
 /packages/gaussian/g09e01/l1.exe "/tmp/Gau-107067.inp" -scrdir="/tmp/"
 Entering Link 1 = /packages/gaussian/g09e01/l1.exe PID=    107068.
  
 Copyright (c) 1988,1990,1992,1993,1995,1998,2003,2009,2015,
            Gaussian, Inc.  All Rights Reserved.
  
 This is part of the Gaussian(R) 09 program.  It is based on
 the Gaussian(R) 03 system (copyright 2003, Gaussian, Inc.),
 the Gaussian(R) 98 system (copyright 1998, Gaussian, Inc.),
 the Gaussian(R) 94 system (copyright 1995, Gaussian, Inc.),
 the Gaussian 92(TM) system (copyright 1992, Gaussian, Inc.),
 the Gaussian 90(TM) system (copyright 1990, Gaussian, Inc.),
 the Gaussian 88(TM) system (copyright 1988, Gaussian, Inc.),
 the Gaussian 86(TM) system (copyright 1986, Carnegie Mellon
 University), and the Gaussian 82(TM) system (copyright 1983,
 Carnegie Mellon University). Gaussian is a federally registered
 trademark of Gaussian, Inc.
  
 This software contains proprietary and confidential information,
 including trade secrets, belonging to Gaussian, Inc.
  
 This software is provided under written license and may be
 used, copied, transmitted, or stored only in accord with that
 written license.
  
 The following legend is applicable only to US Government
 contracts under FAR:
  
                    RESTRICTED RIGHTS LEGEND
  
 Use, reproduction and disclosure by the US Government is
 subject to restrictions as set forth in subparagraphs (a)
 and (c) of the Commercial Computer Software - Restricted
 Rights clause in FAR 52.227-19.
  
 Gaussian, Inc.
 340 Quinnipiac St., Bldg. 40, Wallingford CT 06492
  
  
 ---------------------------------------------------------------
 Warning -- This program may not be used in any manner that
 competes with the business of Gaussian, Inc. or will provide
 assistance to any competitor of Gaussian, Inc.  The licensee
 of this program is prohibited from giving any competitor of
 Gaussian, Inc. access to this program.  By using this program,
 the user acknowledges that Gaussian, Inc. is engaged in the
 business of creating and licensing software in the field of
 computational chemistry and represents and warrants to the
 licensee that it is not a competitor of Gaussian, Inc. and that
 it will not use this program in any manner prohibited above.
 ---------------------------------------------------------------
  

 Cite this work as:
 Gaussian 09, Revision E.01,
 M. J. Frisch, G. W. Trucks, H. B. Schlegel, G. E. Scuseria, 
 M. A. Robb, J. R. Cheeseman, G. Scalmani, V. Barone, B. Mennucci, 
 G. A. Petersson, H. Nakatsuji, M. Caricato, X. Li, H. P. Hratchian, 
 A. F. Izmaylov, J. Bloino, G. Zheng, J. L. Sonnenberg, M. Hada, 
 M. Ehara, K. Toyota, R. Fukuda, J. Hasegawa, M. Ishida, T. Nakajima, 
 Y. Honda, O. Kitao, H. Nakai, T. Vreven, J. A. Montgomery, Jr., 
 J. E. Peralta, F. Ogliaro, M. Bearpark, J. J. Heyd, E. Brothers, 
 K. N. Kudin, V. N. Staroverov, T. Keith, R. Kobayashi, J. Normand, 
 K. Raghavachari, A. Rendell, J. C. Burant, S. S. Iyengar, J. Tomasi, 
 M. Cossi, N. Rega, J. M. Millam, M. Klene, J. E. Knox, J. B. Cross, 
 V. Bakken, C. Adamo, J. Jaramillo, R. Gomperts, R. E. Stratmann, 
 O. Yazyev, A. J. Austin, R. Cammi, C. Pomelli, J. W. Ochterski, 
 R. L. Martin, K. Morokuma, V. G. Zakrzewski, G. A. Voth, 
 P. Salvador, J. J. Dannenberg, S. Dapprich, A. D. Daniels, 
 O. Farkas, J. B. Foresman, J. V. Ortiz, J. Cioslowski, 
 and D. J. Fox, Gaussian, Inc., Wallingford CT, 2013.
 
 ******************************************
 Gaussian 09:  EM64L-G09RevE.01 30-Nov-2015
                18-Apr-2019 
 ******************************************
 ---------------------
 #n B3LYP/6-31G(d) opt
 ---------------------
 1/14=-1,18=20,19=15,26=3,38=1/1,3;
 2/9=110,12=2,17=6,18=5,40=1/2;
 3/5=1,6=6,7=1,11=2,16=1,25=1,30=1,71=1,74=-5/1,2,3;
 4//1;
 5/5=2,38=5/2;
 6/7=2,8=2,9=2,10=2,28=1/1;
 7//1,2,3,16;
 1/14=-1,18=20,19=15,26=3/3(2);
 2/9=110/2;
 99//99;
 2/9=110/2;
 3/5=1,6=6,7=1,11=2,16=1,25=1,30=1,71=1,74=-5/1,2,3;
 4/5=5,16=3,69=1/1;
 5/5=2,38=5/2;
 7//1,2,3,16;
 1/14=-1,18=20,19=15,26=3/3(-5);
 2/9=110/2;
 6/7=2,8=2,9=2,10=2,19=2,28=1/1;
 99/9=1/99;
 ---------------------
 geometry optimization
 ---------------------
 Symbolic Z-matrix:
 Charge =  0 Multiplicity = 1
 C                     3.05541  -0.96584  -0.12546 
 C                     3.50519   0.44773   0.05531 
 C                     3.15237   1.08017   1.26316 
 C                     2.71347   2.39934   1.27963 
 C                     2.60633   3.1445    0.08893 
 C                     3.32458   2.63303  -1.01456 
 C                     3.76385   1.31034  -1.03182 
 C                     2.38723  -1.27462  -1.32612 
 C                     1.26648  -2.09786  -1.33046 
 C                     0.76501  -2.6476   -0.13453 
 C                    -0.7185   -2.66225   0.04266 
 C                    -1.61221  -2.59108  -1.04782 
 C                    -2.74014  -1.77483  -0.99563 
 C                    -3.024    -0.99688   0.14915 
 C                    -3.50706   0.41393   0.04734 
 C                    -3.46925   1.07332  -1.19909 
 C                    -3.06265   2.39961  -1.30101 
 C                    -2.64515   3.12046  -0.16188 
 C                    -3.07741   2.58518   1.07052 
 C                    -3.51213   1.26721   1.17173 
 C                    -2.35981  -1.39828   1.32601 
 C                    -1.231    -2.20778   1.27355 
 C                     1.65998  -2.64862   0.95798 
 C                     2.78301  -1.82299   0.96281 
 H                     3.00356   0.48601   2.15932 
 H                     2.2491    2.76354   2.19024 
 H                     3.41213   3.21814  -1.92644 
 H                     4.17525   0.91209  -1.95606 
 H                     2.59663  -0.69987  -2.22287 
 H                     0.66206  -2.1224   -2.23157 
 H                    -1.35082  -3.0509   -1.99752 
 H                    -3.31026  -1.63175  -1.90942 
 H                    -3.57498   0.50707  -2.11929 
 H                    -2.90125   2.80193  -2.29619 
 H                    -2.9133    3.134     1.99284 
 H                    -3.68723   0.86512   2.16522 
 H                    -2.5847   -0.91623   2.27144 
 H                    -0.63401  -2.30092   2.17531 
 H                     1.40349  -3.17941   1.8714 
 H                     3.36106  -1.73801   1.87976 
 H                     2.1502    4.12853   0.06777 
 H                    -2.19843   4.10606  -0.23617 
 

 GradGradGradGradGradGradGradGradGradGradGradGradGradGradGradGradGradGrad
 Berny optimization.
 Initialization pass.
                           ----------------------------
                           !    Initial Parameters    !
                           ! (Angstroms and Degrees)  !
 --------------------------                            --------------------------
 ! Name  Definition              Value          Derivative Info.                !
 --------------------------------------------------------------------------------
 ! R1    R(1,2)                  1.4944         estimate D2E/DX2                !
 ! R2    R(1,8)                  1.4083         estimate D2E/DX2                !
 ! R3    R(1,24)                 1.4118         estimate D2E/DX2                !
 ! R4    R(2,3)                  1.4083         estimate D2E/DX2                !
 ! R5    R(2,7)                  1.4117         estimate D2E/DX2                !
 ! R6    R(3,4)                  1.3904         estimate D2E/DX2                !
 ! R7    R(3,25)                 1.0855         estimate D2E/DX2                !
 ! R8    R(4,5)                  1.4087         estimate D2E/DX2                !
 ! R9    R(4,26)                 1.0851         estimate D2E/DX2                !
 ! R10   R(5,6)                  1.4125         estimate D2E/DX2                !
 ! R11   R(5,41)                 1.0848         estimate D2E/DX2                !
 ! R12   R(6,7)                  1.3938         estimate D2E/DX2                !
 ! R13   R(6,27)                 1.087          estimate D2E/DX2                !
 ! R14   R(7,28)                 1.0872         estimate D2E/DX2                !
 ! R15   R(8,9)                  1.3906         estimate D2E/DX2                !
 ! R16   R(8,29)                 1.0855         estimate D2E/DX2                !
 ! R17   R(9,10)                 1.4085         estimate D2E/DX2                !
 ! R18   R(9,30)                 1.0853         estimate D2E/DX2                !
 ! R19   R(10,11)                1.4941         estimate D2E/DX2                !
 ! R20   R(10,23)                1.4123         estimate D2E/DX2                !
 ! R21   R(11,12)                1.4117         estimate D2E/DX2                !
 ! R22   R(11,22)                1.4086         estimate D2E/DX2                !
 ! R23   R(12,13)                1.3933         estimate D2E/DX2                !
 ! R24   R(12,31)                1.0871         estimate D2E/DX2                !
 ! R25   R(13,14)                1.4129         estimate D2E/DX2                !
 ! R26   R(13,32)                1.0865         estimate D2E/DX2                !
 ! R27   R(14,15)                1.4947         estimate D2E/DX2                !
 ! R28   R(14,21)                1.4097         estimate D2E/DX2                !
 ! R29   R(15,16)                1.4106         estimate D2E/DX2                !
 ! R30   R(15,20)                1.4115         estimate D2E/DX2                !
 ! R31   R(16,17)                1.3909         estimate D2E/DX2                !
 ! R32   R(16,33)                1.0856         estimate D2E/DX2                !
 ! R33   R(17,18)                1.4112         estimate D2E/DX2                !
 ! R34   R(17,34)                1.0855         estimate D2E/DX2                !
 ! R35   R(18,19)                1.4114         estimate D2E/DX2                !
 ! R36   R(18,42)                1.0847         estimate D2E/DX2                !
 ! R37   R(19,20)                1.3915         estimate D2E/DX2                !
 ! R38   R(19,35)                1.0857         estimate D2E/DX2                !
 ! R39   R(20,36)                1.086          estimate D2E/DX2                !
 ! R40   R(21,22)                1.3901         estimate D2E/DX2                !
 ! R41   R(21,37)                1.0848         estimate D2E/DX2                !
 ! R42   R(22,38)                1.0855         estimate D2E/DX2                !
 ! R43   R(23,24)                1.3939         estimate D2E/DX2                !
 ! R44   R(23,39)                1.0871         estimate D2E/DX2                !
 ! R45   R(24,40)                1.0873         estimate D2E/DX2                !
 ! A1    A(2,1,8)              116.957          estimate D2E/DX2                !
 ! A2    A(2,1,24)             122.624          estimate D2E/DX2                !
 ! A3    A(8,1,24)             115.6267         estimate D2E/DX2                !
 ! A4    A(1,2,3)              116.9449         estimate D2E/DX2                !
 ! A5    A(1,2,7)              122.6838         estimate D2E/DX2                !
 ! A6    A(3,2,7)              115.5929         estimate D2E/DX2                !
 ! A7    A(2,3,4)              121.0189         estimate D2E/DX2                !
 ! A8    A(2,3,25)             119.7755         estimate D2E/DX2                !
 ! A9    A(4,3,25)             117.7934         estimate D2E/DX2                !
 ! A10   A(3,4,5)              121.0555         estimate D2E/DX2                !
 ! A11   A(3,4,26)             117.612          estimate D2E/DX2                !
 ! A12   A(5,4,26)             119.948          estimate D2E/DX2                !
 ! A13   A(4,5,6)              115.4746         estimate D2E/DX2                !
 ! A14   A(4,5,41)             121.8892         estimate D2E/DX2                !
 ! A15   A(6,5,41)             121.8051         estimate D2E/DX2                !
 ! A16   A(5,6,7)              120.9001         estimate D2E/DX2                !
 ! A17   A(5,6,27)             120.0939         estimate D2E/DX2                !
 ! A18   A(7,6,27)             118.3621         estimate D2E/DX2                !
 ! A19   A(2,7,6)              120.8361         estimate D2E/DX2                !
 ! A20   A(2,7,28)             120.0102         estimate D2E/DX2                !
 ! A21   A(6,7,28)             118.5141         estimate D2E/DX2                !
 ! A22   A(1,8,9)              120.9863         estimate D2E/DX2                !
 ! A23   A(1,8,29)             119.7801         estimate D2E/DX2                !
 ! A24   A(9,8,29)             117.7969         estimate D2E/DX2                !
 ! A25   A(8,9,10)             121.0198         estimate D2E/DX2                !
 ! A26   A(8,9,30)             117.6976         estimate D2E/DX2                !
 ! A27   A(10,9,30)            119.8584         estimate D2E/DX2                !
 ! A28   A(9,10,11)            117.2591         estimate D2E/DX2                !
 ! A29   A(9,10,23)            115.5619         estimate D2E/DX2                !
 ! A30   A(11,10,23)           122.5105         estimate D2E/DX2                !
 ! A31   A(10,11,12)           122.4437         estimate D2E/DX2                !
 ! A32   A(10,11,22)           117.4971         estimate D2E/DX2                !
 ! A33   A(12,11,22)           115.3648         estimate D2E/DX2                !
 ! A34   A(11,12,13)           120.8709         estimate D2E/DX2                !
 ! A35   A(11,12,31)           120.0859         estimate D2E/DX2                !
 ! A36   A(13,12,31)           118.3722         estimate D2E/DX2                !
 ! A37   A(12,13,14)           121.0352         estimate D2E/DX2                !
 ! A38   A(12,13,32)           118.0628         estimate D2E/DX2                !
 ! A39   A(14,13,32)           120.2314         estimate D2E/DX2                !
 ! A40   A(13,14,15)           121.9682         estimate D2E/DX2                !
 ! A41   A(13,14,21)           115.1487         estimate D2E/DX2                !
 ! A42   A(15,14,21)           118.5477         estimate D2E/DX2                !
 ! A43   A(14,15,16)           119.5209         estimate D2E/DX2                !
 ! A44   A(14,15,20)           121.1642         estimate D2E/DX2                !
 ! A45   A(16,15,20)           114.9223         estimate D2E/DX2                !
 ! A46   A(15,16,17)           121.2181         estimate D2E/DX2                !
 ! A47   A(15,16,33)           120.1679         estimate D2E/DX2                !
 ! A48   A(17,16,33)           117.6266         estimate D2E/DX2                !
 ! A49   A(16,17,18)           120.9568         estimate D2E/DX2                !
 ! A50   A(16,17,34)           117.6485         estimate D2E/DX2                !
 ! A51   A(18,17,34)           120.4456         estimate D2E/DX2                !
 ! A52   A(17,18,19)           114.8647         estimate D2E/DX2                !
 ! A53   A(17,18,42)           122.0537         estimate D2E/DX2                !
 ! A54   A(19,18,42)           122.0415         estimate D2E/DX2                !
 ! A55   A(18,19,20)           121.2238         estimate D2E/DX2                !
 ! A56   A(18,19,35)           120.2481         estimate D2E/DX2                !
 ! A57   A(20,19,35)           117.6589         estimate D2E/DX2                !
 ! A58   A(15,20,19)           120.8981         estimate D2E/DX2                !
 ! A59   A(15,20,36)           120.3643         estimate D2E/DX2                !
 ! A60   A(19,20,36)           117.8786         estimate D2E/DX2                !
 ! A61   A(14,21,22)           121.1254         estimate D2E/DX2                !
 ! A62   A(14,21,37)           120.224          estimate D2E/DX2                !
 ! A63   A(22,21,37)           117.3878         estimate D2E/DX2                !
 ! A64   A(11,22,21)           121.0853         estimate D2E/DX2                !
 ! A65   A(11,22,38)           119.8765         estimate D2E/DX2                !
 ! A66   A(21,22,38)           117.7259         estimate D2E/DX2                !
 ! A67   A(10,23,24)           120.8518         estimate D2E/DX2                !
 ! A68   A(10,23,39)           120.0536         estimate D2E/DX2                !
 ! A69   A(24,23,39)           118.4491         estimate D2E/DX2                !
 ! A70   A(1,24,23)            120.8239         estimate D2E/DX2                !
 ! A71   A(1,24,40)            120.0027         estimate D2E/DX2                !
 ! A72   A(23,24,40)           118.5265         estimate D2E/DX2                !
 ! D1    D(8,1,2,3)            129.4954         estimate D2E/DX2                !
 ! D2    D(8,1,2,7)            -24.9094         estimate D2E/DX2                !
 ! D3    D(24,1,2,3)           -24.8839         estimate D2E/DX2                !
 ! D4    D(24,1,2,7)          -179.2887         estimate D2E/DX2                !
 ! D5    D(2,1,8,9)           -138.1885         estimate D2E/DX2                !
 ! D6    D(2,1,8,29)            27.8338         estimate D2E/DX2                !
 ! D7    D(24,1,8,9)            17.988          estimate D2E/DX2                !
 ! D8    D(24,1,8,29)         -175.9898         estimate D2E/DX2                !
 ! D9    D(2,1,24,23)          136.7691         estimate D2E/DX2                !
 ! D10   D(2,1,24,40)          -33.8764         estimate D2E/DX2                !
 ! D11   D(8,1,24,23)          -17.9232         estimate D2E/DX2                !
 ! D12   D(8,1,24,40)          171.4313         estimate D2E/DX2                !
 ! D13   D(1,2,3,4)           -138.2998         estimate D2E/DX2                !
 ! D14   D(1,2,3,25)            27.8397         estimate D2E/DX2                !
 ! D15   D(7,2,3,4)             17.9241         estimate D2E/DX2                !
 ! D16   D(7,2,3,25)          -175.9364         estimate D2E/DX2                !
 ! D17   D(1,2,7,6)            136.8791         estimate D2E/DX2                !
 ! D18   D(1,2,7,28)           -33.8181         estimate D2E/DX2                !
 ! D19   D(3,2,7,6)            -17.843          estimate D2E/DX2                !
 ! D20   D(3,2,7,28)           171.4598         estimate D2E/DX2                !
 ! D21   D(2,3,4,5)              0.0724         estimate D2E/DX2                !
 ! D22   D(2,3,4,26)           166.632          estimate D2E/DX2                !
 ! D23   D(25,3,4,5)          -166.3331         estimate D2E/DX2                !
 ! D24   D(25,3,4,26)            0.2265         estimate D2E/DX2                !
 ! D25   D(3,4,5,6)            -18.0755         estimate D2E/DX2                !
 ! D26   D(3,4,5,41)           172.191          estimate D2E/DX2                !
 ! D27   D(26,4,5,6)           175.6753         estimate D2E/DX2                !
 ! D28   D(26,4,5,41)            5.9417         estimate D2E/DX2                !
 ! D29   D(4,5,6,7)             18.0908         estimate D2E/DX2                !
 ! D30   D(4,5,6,27)          -171.2571         estimate D2E/DX2                !
 ! D31   D(41,5,6,7)          -172.1662         estimate D2E/DX2                !
 ! D32   D(41,5,6,27)           -1.5141         estimate D2E/DX2                !
 ! D33   D(5,6,7,2)             -0.1641         estimate D2E/DX2                !
 ! D34   D(5,6,7,28)           170.6694         estimate D2E/DX2                !
 ! D35   D(27,6,7,2)          -170.9743         estimate D2E/DX2                !
 ! D36   D(27,6,7,28)           -0.1408         estimate D2E/DX2                !
 ! D37   D(1,8,9,10)             0.0236         estimate D2E/DX2                !
 ! D38   D(1,8,9,30)           166.3835         estimate D2E/DX2                !
 ! D39   D(29,8,9,10)         -166.2672         estimate D2E/DX2                !
 ! D40   D(29,8,9,30)            0.0927         estimate D2E/DX2                !
 ! D41   D(8,9,10,11)          138.3918         estimate D2E/DX2                !
 ! D42   D(8,9,10,23)          -18.0473         estimate D2E/DX2                !
 ! D43   D(30,9,10,11)         -27.6768         estimate D2E/DX2                !
 ! D44   D(30,9,10,23)         175.8841         estimate D2E/DX2                !
 ! D45   D(9,10,11,12)          21.94           estimate D2E/DX2                !
 ! D46   D(9,10,11,22)        -132.6326         estimate D2E/DX2                !
 ! D47   D(23,10,11,12)        176.6242         estimate D2E/DX2                !
 ! D48   D(23,10,11,22)         22.0516         estimate D2E/DX2                !
 ! D49   D(9,10,23,24)          18.0477         estimate D2E/DX2                !
 ! D50   D(9,10,23,39)        -171.3037         estimate D2E/DX2                !
 ! D51   D(11,10,23,24)       -137.0316         estimate D2E/DX2                !
 ! D52   D(11,10,23,39)         33.6169         estimate D2E/DX2                !
 ! D53   D(10,11,12,13)       -136.7075         estimate D2E/DX2                !
 ! D54   D(10,11,12,31)         33.7526         estimate D2E/DX2                !
 ! D55   D(22,11,12,13)         18.3634         estimate D2E/DX2                !
 ! D56   D(22,11,12,31)       -171.1764         estimate D2E/DX2                !
 ! D57   D(10,11,22,21)        138.2415         estimate D2E/DX2                !
 ! D58   D(10,11,22,38)        -28.3803         estimate D2E/DX2                !
 ! D59   D(12,11,22,21)        -18.1173         estimate D2E/DX2                !
 ! D60   D(12,11,22,38)        175.2609         estimate D2E/DX2                !
 ! D61   D(11,12,13,14)         -0.1055         estimate D2E/DX2                !
 ! D62   D(11,12,13,32)        170.5301         estimate D2E/DX2                !
 ! D63   D(31,12,13,14)       -170.7255         estimate D2E/DX2                !
 ! D64   D(31,12,13,32)         -0.0899         estimate D2E/DX2                !
 ! D65   D(12,13,14,15)        137.8704         estimate D2E/DX2                !
 ! D66   D(12,13,14,21)        -18.3793         estimate D2E/DX2                !
 ! D67   D(32,13,14,15)        -32.5635         estimate D2E/DX2                !
 ! D68   D(32,13,14,21)        171.1868         estimate D2E/DX2                !
 ! D69   D(13,14,15,16)        -10.9309         estimate D2E/DX2                !
 ! D70   D(13,14,15,20)       -166.2132         estimate D2E/DX2                !
 ! D71   D(21,14,15,16)        144.5477         estimate D2E/DX2                !
 ! D72   D(21,14,15,20)        -10.7346         estimate D2E/DX2                !
 ! D73   D(13,14,21,22)         18.6867         estimate D2E/DX2                !
 ! D74   D(13,14,21,37)       -174.4836         estimate D2E/DX2                !
 ! D75   D(15,14,21,22)       -138.4235         estimate D2E/DX2                !
 ! D76   D(15,14,21,37)         28.4063         estimate D2E/DX2                !
 ! D77   D(14,15,16,17)       -138.2422         estimate D2E/DX2                !
 ! D78   D(14,15,16,33)         30.1204         estimate D2E/DX2                !
 ! D79   D(20,15,16,17)         18.5203         estimate D2E/DX2                !
 ! D80   D(20,15,16,33)       -173.1171         estimate D2E/DX2                !
 ! D81   D(14,15,20,19)        136.46           estimate D2E/DX2                !
 ! D82   D(14,15,20,36)        -32.7043         estimate D2E/DX2                !
 ! D83   D(16,15,20,19)        -19.8853         estimate D2E/DX2                !
 ! D84   D(16,15,20,36)        170.9505         estimate D2E/DX2                !
 ! D85   D(15,16,17,18)          1.4472         estimate D2E/DX2                !
 ! D86   D(15,16,17,34)        170.3473         estimate D2E/DX2                !
 ! D87   D(33,16,17,18)       -167.2006         estimate D2E/DX2                !
 ! D88   D(33,16,17,34)          1.6994         estimate D2E/DX2                !
 ! D89   D(16,17,18,19)        -19.9444         estimate D2E/DX2                !
 ! D90   D(16,17,18,42)        171.5037         estimate D2E/DX2                !
 ! D91   D(34,17,18,19)        171.4648         estimate D2E/DX2                !
 ! D92   D(34,17,18,42)          2.9128         estimate D2E/DX2                !
 ! D93   D(17,18,19,20)         18.5677         estimate D2E/DX2                !
 ! D94   D(17,18,19,35)       -172.3551         estimate D2E/DX2                !
 ! D95   D(42,18,19,20)       -172.8789         estimate D2E/DX2                !
 ! D96   D(42,18,19,35)         -3.8016         estimate D2E/DX2                !
 ! D97   D(18,19,20,15)          1.3755         estimate D2E/DX2                !
 ! D98   D(18,19,20,36)        170.8015         estimate D2E/DX2                !
 ! D99   D(35,19,20,15)       -167.9747         estimate D2E/DX2                !
 ! D100  D(35,19,20,36)          1.4513         estimate D2E/DX2                !
 ! D101  D(14,21,22,11)         -0.4663         estimate D2E/DX2                !
 ! D102  D(14,21,22,38)        166.4337         estimate D2E/DX2                !
 ! D103  D(37,21,22,11)       -167.6559         estimate D2E/DX2                !
 ! D104  D(37,21,22,38)         -0.7559         estimate D2E/DX2                !
 ! D105  D(10,23,24,1)          -0.088          estimate D2E/DX2                !
 ! D106  D(10,23,24,40)        170.6928         estimate D2E/DX2                !
 ! D107  D(39,23,24,1)        -170.8833         estimate D2E/DX2                !
 ! D108  D(39,23,24,40)         -0.1026         estimate D2E/DX2                !
 --------------------------------------------------------------------------------
 Trust Radius=3.00D-01 FncErr=1.00D-07 GrdErr=1.00D-06
 Number of steps in this run=    235 maximum allowed number of steps=    252.
 GradGradGradGradGradGradGradGradGradGradGradGradGradGradGradGradGradGrad

                          Input orientation:                          
 ---------------------------------------------------------------------
 Center     Atomic      Atomic             Coordinates (Angstroms)
 Number     Number       Type             X           Y           Z
 ---------------------------------------------------------------------
      1          6           0        3.055411   -0.965841   -0.125462
      2          6           0        3.505186    0.447728    0.055306
      3          6           0        3.152369    1.080166    1.263162
      4          6           0        2.713466    2.399337    1.279634
      5          6           0        2.606329    3.144500    0.088927
      6          6           0        3.324582    2.633030   -1.014565
      7          6           0        3.763848    1.310335   -1.031821
      8          6           0        2.387227   -1.274617   -1.326121
      9          6           0        1.266475   -2.097862   -1.330463
     10          6           0        0.765005   -2.647601   -0.134531
     11          6           0       -0.718499   -2.662254    0.042659
     12          6           0       -1.612207   -2.591080   -1.047817
     13          6           0       -2.740135   -1.774834   -0.995627
     14          6           0       -3.023995   -0.996882    0.149149
     15          6           0       -3.507061    0.413931    0.047342
     16          6           0       -3.469252    1.073324   -1.199094
     17          6           0       -3.062650    2.399606   -1.301010
     18          6           0       -2.645145    3.120459   -0.161884
     19          6           0       -3.077409    2.585184    1.070519
     20          6           0       -3.512129    1.267207    1.171727
     21          6           0       -2.359814   -1.398277    1.326008
     22          6           0       -1.231004   -2.207777    1.273546
     23          6           0        1.659976   -2.648622    0.957980
     24          6           0        2.783006   -1.822992    0.962808
     25          1           0        3.003558    0.486006    2.159316
     26          1           0        2.249101    2.763543    2.190239
     27          1           0        3.412128    3.218135   -1.926440
     28          1           0        4.175251    0.912085   -1.956064
     29          1           0        2.596630   -0.699865   -2.222865
     30          1           0        0.662056   -2.122397   -2.231568
     31          1           0       -1.350816   -3.050897   -1.997522
     32          1           0       -3.310263   -1.631751   -1.909422
     33          1           0       -3.574981    0.507067   -2.119293
     34          1           0       -2.901247    2.801933   -2.296195
     35          1           0       -2.913300    3.134002    1.992843
     36          1           0       -3.687230    0.865115    2.165224
     37          1           0       -2.584697   -0.916233    2.271445
     38          1           0       -0.634009   -2.300924    2.175306
     39          1           0        1.403491   -3.179408    1.871395
     40          1           0        3.361057   -1.738006    1.879761
     41          1           0        2.150204    4.128529    0.067773
     42          1           0       -2.198433    4.106059   -0.236169
 ---------------------------------------------------------------------
                    Distance matrix (angstroms):
                    1          2          3          4          5
     1  C    0.000000
     2  C    1.494373   0.000000
     3  C    2.474636   1.408323   0.000000
     4  C    3.662737   2.436099   1.390367   0.000000
     5  C    4.140355   2.842825   2.436896   1.408733   0.000000
     6  C    3.716831   2.439833   2.762080   2.385671   1.412510
     7  C    2.550362   1.411681   2.386175   2.762617   2.441329
     8  C    1.408330   2.474802   3.582573   4.516008   4.645316
     9  C    2.435937   3.662269   4.514792   5.397332   5.593946
    10  C    2.841542   4.138320   4.642122   5.591775   6.081845
    11  C    4.141072   5.245156   5.520775   6.239246   6.691413
    12  C    5.027803   6.053011   6.443590   7.002338   7.210070
    13  C    5.916081   6.711801   6.926381   7.234796   7.345800
    14  C    6.085684   6.687743   6.610796   6.762452   6.989651
    15  C    6.708179   7.012333   6.802213   6.644948   6.695616
    16  C    6.919690   7.113907   7.064603   6.791790   6.546866
    17  C    7.080877   6.984690   6.851450   6.326392   5.884226
    18  C    7.013951   6.709488   6.309098   5.595775   5.257515
    19  C    7.186907   6.994993   6.411889   5.797629   5.794932
    20  C    7.057038   7.152667   6.667749   6.328617   6.490933
    21  C    5.623027   6.278586   6.044071   6.337365   6.843228
    22  C    4.676856   5.564828   5.479474   6.065013   6.691436
    23  C    2.439844   3.715778   4.027932   5.166739   5.933894
    24  C    1.411823   2.549759   2.941933   4.234770   5.046866
    25  H    2.707537   2.163320   1.085478   2.125754   3.392918
    26  H    4.463285   3.390971   2.123470   1.085119   2.165237
    27  H    4.569073   3.407511   3.848629   3.381933   2.171736
    28  H    2.851623   2.170305   3.382005   3.849477   3.409865
    29  H    2.163405   2.707860   3.953447   4.678269   4.485936
    30  H    3.391379   4.463040   5.354550   6.081357   6.074957
    31  H    5.221772   6.327340   6.926501   7.547396   7.641676
    32  H    6.644378   7.391531   7.693204   7.918653   7.862063
    33  H    7.078624   7.406832   7.551601   7.394454   7.073958
    34  H    7.374956   7.219018   7.230475   6.668856   6.011618
    35  H    7.544630   7.222678   6.445387   5.719169   5.838776
    36  H    7.352744   7.507118   6.902179   6.641311   7.008244
    37  H    6.128494   6.622563   6.157611   6.328288   6.942600
    38  H    4.548384   5.402076   5.157561   5.839544   6.671238
    39  H    3.408248   4.568525   4.644620   5.760956   6.679508
    40  H    2.170386   2.850762   2.892376   4.230500   5.255051
    41  H    5.177774   3.922299   3.424297   2.185401   1.084809
    42  H    7.303376   6.782301   6.327330   5.416393   4.910807
                    6          7          8          9         10
     6  C    0.000000
     7  C    1.393834   0.000000
     8  C    4.030559   2.943412   0.000000
     9  C    5.168843   4.235784   1.390624   0.000000
    10  C    5.933882   5.046132   2.436509   1.408524   0.000000
    11  C    6.745684   6.085015   3.666692   2.478734   1.494120
    12  C    7.187789   6.642534   4.219716   2.934274   2.547238
    13  C    7.497361   7.198706   5.162294   4.033533   3.713383
    14  C    7.405061   7.265862   5.615593   4.670069   4.142689
    15  C    7.261088   7.405015   6.283329   5.567234   5.258955
    16  C    6.973013   7.238915   6.310888   5.700946   5.736507
    17  C    6.397911   6.918096   6.572800   6.242548   6.440956
    18  C    6.049983   6.716288   6.782102   6.625498   6.700775
    19  C    6.733153   7.269654   7.106630   6.823852   6.602903
    20  C    7.306570   7.602455   6.892207   6.357649   5.943560
    21  C    7.351332   7.098956   5.439070   4.549311   3.668580
    22  C    7.030094   6.529960   4.551994   3.609757   2.481971
    23  C    5.878579   4.904990   2.762952   2.386452   1.412287
    24  C    4.905042   3.841658   2.386745   2.763062   2.440586
    25  H    3.845294   3.382442   3.953217   4.676793   4.482449
    26  H    3.382966   3.845509   5.356361   6.082282   6.073514
    27  H    1.086981   2.136294   4.647109   5.763579   6.680199
    28  H    2.138156   1.087235   2.894050   4.232273   5.255390
    29  H    3.619129   2.611874   1.085513   2.126050   3.392590
    30  H    5.584284   4.779556   2.124801   1.085318   2.164256
    31  H    7.425131   6.790634   4.192722   2.864168   2.847821
    32  H    7.937902   7.711621   5.738395   4.636700   4.559605
    33  H    7.303705   7.462322   6.273073   5.554062   5.720725
    34  H    6.358620   6.946006   6.747389   6.504655   6.914594
    35  H    6.943101   7.553718   7.651603   7.475780   7.175136
    36  H    7.899499   8.120214   7.325774   6.748204   6.119677
    37  H    7.636407   7.494878   6.147434   5.403843   4.472903
    38  H    7.084463   6.532075   4.737211   3.992930   2.722641
    39  H    6.767850   5.844462   3.849685   3.382367   2.171226
    40  H    5.242557   4.234611   3.382418   3.849975   3.409431
    41  H    2.187953   3.428582   5.585079   6.442359   6.919223
    42  H    5.768831   6.633094   7.153177   7.189694   7.375922
                   11         12         13         14         15
    11  C    0.000000
    12  C    1.411707   0.000000
    13  C    2.439788   1.393271   0.000000
    14  C    2.846070   2.442814   1.412904   0.000000
    15  C    4.151989   3.717517   2.542961   1.494694   0.000000
    16  C    4.802409   4.110883   2.947035   2.510332   1.410614
    17  C    5.737850   5.203349   4.198002   3.693316   2.440996
    18  C    6.098653   5.871415   4.966693   4.146416   2.848152
    19  C    5.844361   5.781684   4.836576   3.699050   2.438408
    20  C    4.951750   4.839675   3.814107   2.531806   1.411505
    21  C    2.436911   2.759844   2.382526   1.409699   2.497050
    22  C    1.408650   2.383477   2.759359   2.438309   3.682033
    23  C    2.548557   3.838452   4.892961   5.032101   6.075094
    24  C    3.716392   4.893922   5.860279   5.921635   6.738460
    25  H    5.314648   6.407765   6.932177   6.524655   6.844983
    26  H    6.546604   7.353006   7.459161   6.790610   6.576176
    27  H    7.451067   7.730647   7.977875   7.968571   7.722341
    28  H    6.381190   6.825815   7.480945   7.739846   7.954855
    29  H    4.469189   4.761485   5.580567   6.107872   6.606771
    30  H    2.714680   2.606377   3.636379   4.530074   5.385901
    31  H    2.170992   1.087059   2.135963   3.409795   4.564635
    32  H    3.404379   2.132151   1.086527   2.173183   2.837687
    33  H    4.783108   3.820871   2.677063   2.776919   2.169699
    34  H    6.331822   5.683719   4.760696   4.519488   3.400254
    35  H    6.497457   6.611734   5.749575   4.525004   3.396515
    36  H    5.075527   5.155059   4.225790   2.823380   2.172890
    37  H    3.390984   3.842961   3.381585   2.168785   2.750768
    38  H    2.164690   3.380767   3.842831   3.393799   4.489220
    39  H    2.848608   4.238203   5.230897   5.228019   6.352383
    40  H    4.568584   5.833678   6.744906   6.656814   7.426953
    41  H    7.371894   7.781608   7.739246   7.283460   6.767814
    42  H    6.933831   6.771566   5.954420   5.183631   3.927429
                   16         17         18         19         20
    16  C    0.000000
    17  C    1.390948   0.000000
    18  C    2.438384   1.411222   0.000000
    19  C    2.755069   2.378825   1.411449   0.000000
    20  C    2.379122   2.756590   2.442278   1.391506   0.000000
    21  C    3.703485   4.671094   4.765943   4.055635   2.907995
    22  C    4.678603   5.586702   5.696521   5.140322   4.158054
    23  C    6.694388   7.272609   7.284947   7.060326   6.490768
    24  C    7.221717   7.558234   7.427480   7.334036   7.015818
    25  H    7.315814   7.241174   6.651027   6.524583   6.636248
    26  H    6.858861   6.366786   5.441830   5.445851   6.038887
    27  H    7.244490   6.556211   6.309814   7.176105   7.832630
    28  H    7.683582   7.418155   7.390115   8.034957   8.306925
    29  H    6.402127   6.517974   6.805786   7.337073   7.260135
    30  H    5.324128   5.931938   6.535190   6.859205   6.363619
    31  H    4.704727   5.755301   6.567381   6.645255   5.775936
    32  H    2.801299   4.084522   5.106836   5.168831   4.235350
    33  H    1.085630   2.124564   3.394976   3.839407   3.378250
    34  H    2.124700   1.085500   2.173092   3.378280   3.841229
    35  H    3.839784   3.378034   2.171391   1.085732   2.125500
    36  H    3.377795   3.841815   3.404108   2.128121   1.085990
    37  H    4.097001   4.897516   4.713770   3.734288   2.614750
    38  H    5.550741   6.330723   6.236868   5.573581   4.692793
    39  H    7.159417   7.818949   7.759768   7.345093   6.665226
    40  H    8.002253   8.276542   7.990460   7.797351   7.534806
    41  H    6.520546   5.660087   4.905540   5.542143   6.439557
    42  H    3.426323   2.189233   1.084655   2.189313   3.430313
                   21         22         23         24         25
    21  C    0.000000
    22  C    1.390056   0.000000
    23  C    4.225816   2.941376   0.000000
    24  C    5.173093   4.044366   1.393874   0.000000
    25  H    5.745492   5.096329   3.615842   2.609932   0.000000
    26  H    6.269748   6.137221   5.581851   4.777860   2.399445
    27  H    8.074961   7.825542   6.768216   5.844357   4.932024
    28  H    7.669214   7.027910   5.243748   4.235423   4.300088
    29  H    6.135847   5.399025   3.846134   3.382996   4.558003
    30  H    4.723600   3.984569   3.383190   3.846051   5.618386
    31  H    3.846438   3.380102   4.238123   5.230659   6.982088
    32  H    3.380218   3.845310   5.827461   6.739006   7.804092
    33  H    4.120323   4.937202   6.843446   7.439927   7.847555
    34  H    5.572725   6.374163   7.816838   8.020085   7.751246
    35  H    4.614387   5.646425   7.444766   7.621067   6.484505
    36  H    2.754861   4.033708   6.511252   7.108845   6.701522
    37  H    1.084799   2.120465   4.769026   5.598837   5.762590
    38  H    2.124731   1.085472   2.620142   3.657125   4.582481
    39  H    4.199088   2.870898   1.087127   2.137395   4.009785
    40  H    5.757640   4.655664   2.138359   1.087276   2.269843
    41  H    7.243549   7.282529   6.852924   6.051622   4.286110
    42  H    5.723998   6.563512   7.870135   7.836193   6.775237
                   26         27         28         29         30
    26  H    0.000000
    27  H    4.301899   0.000000
    28  H    4.932523   2.429218   0.000000
    29  H    5.620628   4.012933   2.271918   0.000000
    30  H    6.778163   6.014755   4.650433   2.401302   0.000000
    31  H    8.019006   7.873465   6.800321   4.600050   2.229023
    32  H    8.187329   8.289284   7.906086   5.988159   4.015449
    33  H    7.588391   7.497118   7.762524   6.289372   4.987902
    34  H    6.830494   6.337874   7.332397   6.518790   6.078678
    35  H    5.179439   7.441700   8.412986   7.926541   7.632729
    36  H    6.232550   8.525216   8.877265   7.822492   6.868282
    37  H    6.075603   8.406970   8.179944   6.862346   5.680965
    38  H    5.827639   7.978443   7.107786   5.687207   4.596977
    39  H    6.011271   7.706279   6.250793   4.933019   4.301314
    40  H    4.647234   6.249249   4.732805   4.300422   4.933091
    41  H    2.525436   2.529457   4.306071   5.362808   6.824634
    42  H    5.241218   5.926535   7.333714   7.073648   7.138465
                   31         32         33         34         35
    31  H    0.000000
    32  H    2.420985   0.000000
    33  H    4.197719   2.165332   0.000000
    34  H    6.062067   4.469277   2.398254   0.000000
    35  H    7.524450   6.172330   4.924253   4.301891   0.000000
    36  H    6.174337   4.793661   4.300917   4.926793   2.403442
    37  H    4.929841   4.303262   4.720702   5.898161   4.073083
    38  H    4.299856   4.929009   5.914196   7.153589   5.896345
    39  H    4.750920   6.237732   7.368913   8.466169   7.649090
    40  H    6.241695   7.673051   8.315131   8.790114   7.944609
    41  H    8.250257   8.179659   7.118707   5.732832   5.507636
    42  H    7.419086   6.079342   4.288797   2.537400   2.534645
                   36         37         38         39         40
    36  H    0.000000
    37  H    2.097633   0.000000
    38  H    4.398416   2.394117   0.000000
    39  H    6.508452   4.603004   2.239532   0.000000
    40  H    7.519048   6.015041   4.045340   2.431003   0.000000
    41  H    7.008909   7.261204   7.316516   7.564164   6.258250
    42  H    4.299642   5.626788   7.022255   8.396053   8.338956
                   41         42
    41  H    0.000000
    42  H    4.359304   0.000000
 Stoichiometry    C24H18
 Framework group  C1[X(C24H18)]
 Deg. of freedom   120
 Full point group                 C1      NOp   1
 Largest Abelian subgroup         C1      NOp   1
 Largest concise Abelian subgroup C1      NOp   1
                         Standard orientation:                         
 ---------------------------------------------------------------------
 Center     Atomic      Atomic             Coordinates (Angstroms)
 Number     Number       Type             X           Y           Z
 ---------------------------------------------------------------------
      1          6           0        3.055411   -0.965841   -0.125462
      2          6           0        3.505186    0.447728    0.055306
      3          6           0        3.152369    1.080166    1.263162
      4          6           0        2.713466    2.399337    1.279634
      5          6           0        2.606329    3.144500    0.088927
      6          6           0        3.324582    2.633030   -1.014565
      7          6           0        3.763848    1.310335   -1.031821
      8          6           0        2.387227   -1.274617   -1.326121
      9          6           0        1.266475   -2.097862   -1.330463
     10          6           0        0.765005   -2.647601   -0.134531
     11          6           0       -0.718499   -2.662254    0.042659
     12          6           0       -1.612207   -2.591080   -1.047817
     13          6           0       -2.740135   -1.774834   -0.995627
     14          6           0       -3.023995   -0.996882    0.149149
     15          6           0       -3.507061    0.413931    0.047342
     16          6           0       -3.469252    1.073324   -1.199094
     17          6           0       -3.062650    2.399606   -1.301010
     18          6           0       -2.645145    3.120459   -0.161884
     19          6           0       -3.077409    2.585184    1.070519
     20          6           0       -3.512129    1.267207    1.171727
     21          6           0       -2.359814   -1.398277    1.326008
     22          6           0       -1.231004   -2.207777    1.273546
     23          6           0        1.659976   -2.648622    0.957980
     24          6           0        2.783006   -1.822992    0.962808
     25          1           0        3.003558    0.486006    2.159316
     26          1           0        2.249101    2.763543    2.190239
     27          1           0        3.412128    3.218135   -1.926440
     28          1           0        4.175251    0.912085   -1.956064
     29          1           0        2.596630   -0.699865   -2.222865
     30          1           0        0.662056   -2.122397   -2.231568
     31          1           0       -1.350816   -3.050897   -1.997522
     32          1           0       -3.310263   -1.631751   -1.909422
     33          1           0       -3.574981    0.507067   -2.119293
     34          1           0       -2.901247    2.801933   -2.296195
     35          1           0       -2.913300    3.134002    1.992843
     36          1           0       -3.687230    0.865115    2.165224
     37          1           0       -2.584697   -0.916233    2.271445
     38          1           0       -0.634009   -2.300924    2.175306
     39          1           0        1.403491   -3.179408    1.871395
     40          1           0        3.361057   -1.738006    1.879761
     41          1           0        2.150204    4.128529    0.067773
     42          1           0       -2.198433    4.106059   -0.236169
 ---------------------------------------------------------------------
 Rotational constants (GHZ):      0.3081077      0.1932545      0.1408390
 Standard basis: 6-31G(d) (6D, 7F)
 There are   396 symmetry adapted cartesian basis functions of A   symmetry.
 There are   396 symmetry adapted basis functions of A   symmetry.
   396 basis functions,   744 primitive gaussians,   396 cartesian basis functions
    81 alpha electrons       81 beta electrons
       nuclear repulsion energy      1796.6450265788 Hartrees.
 NAtoms=   42 NActive=   42 NUniq=   42 SFac= 1.00D+00 NAtFMM=   60 NAOKFM=F Big=F
 Integral buffers will be    131072 words long.
 Raffenetti 2 integral format.
 Two-electron integral symmetry is turned on.
 One-electron integrals computed using PRISM.
 NBasis=   396 RedAO= T EigKep=  4.56D-04  NBF=   396
 NBsUse=   396 1.00D-06 EigRej= -1.00D+00 NBFU=   396
 ExpMin= 1.61D-01 ExpMax= 3.05D+03 ExpMxC= 4.57D+02 IAcc=1 IRadAn=         1 AccDes= 0.00D+00
 Harris functional with IExCor=  402 and IRadAn=       1 diagonalized for initial guess.
 HarFok:  IExCor=  402 AccDes= 0.00D+00 IRadAn=         1 IDoV= 1 UseB2=F ITyADJ=14
 ICtDFT=  3500011 ScaDFX=  1.000000  1.000000  1.000000  1.000000
 FoFCou: FMM=F IPFlag=           0 FMFlag=      100000 FMFlg1=           0
         NFxFlg=           0 DoJE=T BraDBF=F KetDBF=T FulRan=T
         wScrn=  0.000000 ICntrl=     500 IOpCl=  0 I1Cent=   200000004 NGrid=           0
         NMat0=    1 NMatS0=      1 NMatT0=    0 NMatD0=    1 NMtDS0=    0 NMtDT0=    0
 Petite list used in FoFCou.
 Requested convergence on RMS density matrix=1.00D-08 within 128 cycles.
 Requested convergence on MAX density matrix=1.00D-06.
 Requested convergence on             energy=1.00D-06.
 No special actions if energy rises.
 Integral accuracy reduced to 1.0D-05 until final iterations.
 Initial convergence to 1.0D-05 achieved.  Increase integral accuracy.
 SCF Done:  E(RB3LYP) =  -925.293446564     A.U. after   15 cycles
            NFock= 15  Conv=0.41D-08     -V/T= 2.0100

 **********************************************************************

            Population analysis using the SCF density.

 **********************************************************************

 Orbital symmetries:
       Occupied  (A) (A) (A) (A) (A) (A) (A) (A) (A) (A) (A) (A)
                 (A) (A) (A) (A) (A) (A) (A) (A) (A) (A) (A) (A)
                 (A) (A) (A) (A) (A) (A) (A) (A) (A) (A) (A) (A)
                 (A) (A) (A) (A) (A) (A) (A) (A) (A) (A) (A) (A)
                 (A) (A) (A) (A) (A) (A) (A) (A) (A) (A) (A) (A)
                 (A) (A) (A) (A) (A) (A) (A) (A) (A) (A) (A) (A)
                 (A) (A) (A) (A) (A) (A) (A) (A) (A)
       Virtual   (A) (A) (A) (A) (A) (A) (A) (A) (A) (A) (A) (A)
                 (A) (A) (A) (A) (A) (A) (A) (A) (A) (A) (A) (A)
                 (A) (A) (A) (A) (A) (A) (A) (A) (A) (A) (A) (A)
                 (A) (A) (A) (A) (A) (A) (A) (A) (A) (A) (A) (A)
                 (A) (A) (A) (A) (A) (A) (A) (A) (A) (A) (A) (A)
                 (A) (A) (A) (A) (A) (A) (A) (A) (A) (A) (A) (A)
                 (A) (A) (A) (A) (A) (A) (A) (A) (A) (A) (A) (A)
                 (A) (A) (A) (A) (A) (A) (A) (A) (A) (A) (A) (A)
                 (A) (A) (A) (A) (A) (A) (A) (A) (A) (A) (A) (A)
                 (A) (A) (A) (A) (A) (A) (A) (A) (A) (A) (A) (A)
                 (A) (A) (A) (A) (A) (A) (A) (A) (A) (A) (A) (A)
                 (A) (A) (A) (A) (A) (A) (A) (A) (A) (A) (A) (A)
                 (A) (A) (A) (A) (A) (A) (A) (A) (A) (A) (A) (A)
                 (A) (A) (A) (A) (A) (A) (A) (A) (A) (A) (A) (A)
                 (A) (A) (A) (A) (A) (A) (A) (A) (A) (A) (A) (A)
                 (A) (A) (A) (A) (A) (A) (A) (A) (A) (A) (A) (A)
                 (A) (A) (A) (A) (A) (A) (A) (A) (A) (A) (A) (A)
                 (A) (A) (A) (A) (A) (A) (A) (A) (A) (A) (A) (A)
                 (A) (A) (A) (A) (A) (A) (A) (A) (A) (A) (A) (A)
                 (A) (A) (A) (A) (A) (A) (A) (A) (A) (A) (A) (A)
                 (A) (A) (A) (A) (A) (A) (A) (A) (A) (A) (A) (A)
                 (A) (A) (A) (A) (A) (A) (A) (A) (A) (A) (A) (A)
                 (A) (A) (A) (A) (A) (A) (A) (A) (A) (A) (A) (A)
                 (A) (A) (A) (A) (A) (A) (A) (A) (A) (A) (A) (A)
                 (A) (A) (A) (A) (A) (A) (A) (A) (A) (A) (A) (A)
                 (A) (A) (A) (A) (A) (A) (A) (A) (A) (A) (A) (A)
                 (A) (A) (A)
 The electronic state is 1-A.
 Alpha  occ. eigenvalues --  -10.20357 -10.20289 -10.20271 -10.20253 -10.20223
 Alpha  occ. eigenvalues --  -10.20195 -10.19171 -10.19152 -10.19095 -10.19080
 Alpha  occ. eigenvalues --  -10.19076 -10.19042 -10.19026 -10.19024 -10.18986
 Alpha  occ. eigenvalues --  -10.18985 -10.18976 -10.18969 -10.18946 -10.18895
 Alpha  occ. eigenvalues --  -10.18738 -10.18735 -10.18718 -10.18715  -0.87352
 Alpha  occ. eigenvalues --   -0.86364  -0.84941  -0.83639  -0.78836  -0.76091
 Alpha  occ. eigenvalues --   -0.75163  -0.74600  -0.73936  -0.73575  -0.72944
 Alpha  occ. eigenvalues --   -0.70006  -0.63465  -0.62376  -0.60773  -0.60755
 Alpha  occ. eigenvalues --   -0.58796  -0.58299  -0.57328  -0.56773  -0.53292
 Alpha  occ. eigenvalues --   -0.52145  -0.50203  -0.48216  -0.48014  -0.46752
 Alpha  occ. eigenvalues --   -0.44935  -0.44801  -0.44211  -0.43284  -0.42857
 Alpha  occ. eigenvalues --   -0.42532  -0.42010  -0.41941  -0.41773  -0.41211
 Alpha  occ. eigenvalues --   -0.40849  -0.39827  -0.39103  -0.37942  -0.37469
 Alpha  occ. eigenvalues --   -0.35631  -0.34365  -0.34168  -0.33787  -0.33128
 Alpha  occ. eigenvalues --   -0.32815  -0.32767  -0.32017  -0.28675  -0.25675
 Alpha  occ. eigenvalues --   -0.25449  -0.25011  -0.24372  -0.24054  -0.21834
 Alpha  occ. eigenvalues --   -0.18590
 Alpha virt. eigenvalues --   -0.05689  -0.02665  -0.01532  -0.00472   0.00805
 Alpha virt. eigenvalues --    0.01051   0.02120   0.02806   0.08491   0.08792
 Alpha virt. eigenvalues --    0.09039   0.11161   0.11264   0.11439   0.12500
 Alpha virt. eigenvalues --    0.13014   0.13678   0.14147   0.14241   0.14683
 Alpha virt. eigenvalues --    0.16352   0.16454   0.17613   0.17834   0.18887
 Alpha virt. eigenvalues --    0.19787   0.21208   0.22821   0.23509   0.25590
 Alpha virt. eigenvalues --    0.25761   0.26535   0.26799   0.27664   0.27733
 Alpha virt. eigenvalues --    0.28432   0.28748   0.29971   0.30156   0.31744
 Alpha virt. eigenvalues --    0.33684   0.34295   0.36034   0.36416   0.36612
 Alpha virt. eigenvalues --    0.37975   0.38697   0.39115   0.42931   0.45198
 Alpha virt. eigenvalues --    0.48244   0.49523   0.49692   0.50695   0.52111
 Alpha virt. eigenvalues --    0.52626   0.52976   0.53928   0.54249   0.54427
 Alpha virt. eigenvalues --    0.54618   0.55083   0.55321   0.56563   0.56786
 Alpha virt. eigenvalues --    0.57040   0.57472   0.57969   0.58043   0.58485
 Alpha virt. eigenvalues --    0.58612   0.59328   0.59636   0.59943   0.60039
 Alpha virt. eigenvalues --    0.60208   0.60634   0.60734   0.61170   0.61703
 Alpha virt. eigenvalues --    0.61831   0.62272   0.62510   0.62653   0.62804
 Alpha virt. eigenvalues --    0.62980   0.63965   0.64393   0.65381   0.65671
 Alpha virt. eigenvalues --    0.66263   0.66352   0.67398   0.68187   0.68471
 Alpha virt. eigenvalues --    0.69471   0.70149   0.70528   0.71184   0.73946
 Alpha virt. eigenvalues --    0.75113   0.77039   0.78998   0.81783   0.82112
 Alpha virt. eigenvalues --    0.82580   0.82719   0.83194   0.83434   0.83744
 Alpha virt. eigenvalues --    0.84308   0.84751   0.84976   0.86618   0.86785
 Alpha virt. eigenvalues --    0.87962   0.88375   0.89007   0.89906   0.90476
 Alpha virt. eigenvalues --    0.91267   0.91441   0.92117   0.92299   0.92890
 Alpha virt. eigenvalues --    0.93018   0.93282   0.93841   0.94234   0.94875
 Alpha virt. eigenvalues --    0.95489   0.96455   0.98632   0.99893   1.00280
 Alpha virt. eigenvalues --    1.01161   1.01857   1.02365   1.02659   1.03172
 Alpha virt. eigenvalues --    1.04989   1.06343   1.06681   1.07499   1.08173
 Alpha virt. eigenvalues --    1.10241   1.12204   1.14280   1.15497   1.15809
 Alpha virt. eigenvalues --    1.17889   1.18301   1.19297   1.20449   1.21102
 Alpha virt. eigenvalues --    1.22239   1.23533   1.25187   1.27014   1.28561
 Alpha virt. eigenvalues --    1.30893   1.33944   1.34751   1.35553   1.37255
 Alpha virt. eigenvalues --    1.38004   1.39135   1.40449   1.41054   1.43096
 Alpha virt. eigenvalues --    1.44291   1.46100   1.46782   1.48147   1.49535
 Alpha virt. eigenvalues --    1.49837   1.50112   1.51104   1.51809   1.52416
 Alpha virt. eigenvalues --    1.52903   1.53183   1.57299   1.59396   1.60081
 Alpha virt. eigenvalues --    1.61793   1.63019   1.63800   1.65370   1.65839
 Alpha virt. eigenvalues --    1.67541   1.72952   1.75314   1.78693   1.79904
 Alpha virt. eigenvalues --    1.80399   1.80960   1.82894   1.84548   1.85247
 Alpha virt. eigenvalues --    1.85676   1.85842   1.87673   1.88454   1.89630
 Alpha virt. eigenvalues --    1.90162   1.93721   1.98052   1.98636   1.99114
 Alpha virt. eigenvalues --    1.99554   1.99709   2.00396   2.00845   2.01159
 Alpha virt. eigenvalues --    2.01706   2.02917   2.03535   2.03778   2.06458
 Alpha virt. eigenvalues --    2.08231   2.09071   2.09762   2.10044   2.10457
 Alpha virt. eigenvalues --    2.12067   2.14692   2.16432   2.17297   2.17706
 Alpha virt. eigenvalues --    2.18771   2.20391   2.20715   2.21269   2.22031
 Alpha virt. eigenvalues --    2.23182   2.24307   2.24551   2.26096   2.28541
 Alpha virt. eigenvalues --    2.29706   2.30120   2.34273   2.35515   2.37397
 Alpha virt. eigenvalues --    2.37781   2.38041   2.39435   2.43018   2.46188
 Alpha virt. eigenvalues --    2.48975   2.49123   2.51470   2.52819   2.54796
 Alpha virt. eigenvalues --    2.57092   2.57383   2.57858   2.58645   2.59743
 Alpha virt. eigenvalues --    2.61227   2.62781   2.63060   2.64469   2.66127
 Alpha virt. eigenvalues --    2.66814   2.70028   2.70490   2.72262   2.74005
 Alpha virt. eigenvalues --    2.74194   2.75613   2.75921   2.76961   2.77227
 Alpha virt. eigenvalues --    2.77736   2.77878   2.80654   2.82867   2.86566
 Alpha virt. eigenvalues --    2.87052   2.89828   2.92827   2.96808   3.06843
 Alpha virt. eigenvalues --    3.15213   3.21333   3.23970   3.29991   3.37239
 Alpha virt. eigenvalues --    3.42840   4.06671   4.07466   4.08464   4.09642
 Alpha virt. eigenvalues --    4.10297   4.11389   4.12485   4.13172   4.13691
 Alpha virt. eigenvalues --    4.16081   4.22115   4.27450   4.28580   4.33115
 Alpha virt. eigenvalues --    4.34842   4.37351   4.40019   4.40580   4.43609
 Alpha virt. eigenvalues --    4.46878   4.57945   4.63922   4.71836   4.78158
          Condensed to atoms (all electrons):
               1          2          3          4          5          6
     1  C    4.786590   0.371635  -0.053907   0.006692   0.000262   0.003601
     2  C    0.371635   4.769334   0.536636  -0.027571  -0.032167  -0.022054
     3  C   -0.053907   0.536636   4.995535   0.523867  -0.036321  -0.043621
     4  C    0.006692  -0.027571   0.523867   4.882420   0.535849  -0.021318
     5  C    0.000262  -0.032167  -0.036321   0.535849   4.877351   0.533947
     6  C    0.003601  -0.022054  -0.043621  -0.021318   0.533947   4.882628
     7  C   -0.050166   0.500762  -0.062635  -0.047174  -0.036259   0.519706
     8  C    0.537269  -0.050263  -0.000618   0.000284   0.000142   0.000958
     9  C   -0.034287   0.005935   0.000282  -0.000003  -0.000009  -0.000039
    10  C   -0.036438   0.000509   0.000298  -0.000013  -0.000003   0.000000
    11  C    0.000604   0.000035  -0.000010  -0.000000   0.000000   0.000000
    12  C    0.000080  -0.000000  -0.000001   0.000000   0.000000   0.000000
    13  C    0.000000  -0.000000   0.000000   0.000000  -0.000000  -0.000000
    14  C   -0.000005   0.000000   0.000001  -0.000000  -0.000000  -0.000000
    15  C    0.000000   0.000000  -0.000000  -0.000000  -0.000000  -0.000000
    16  C    0.000000  -0.000000  -0.000000  -0.000000   0.000000   0.000000
    17  C   -0.000000  -0.000000   0.000000  -0.000000   0.000000  -0.000000
    18  C   -0.000000  -0.000000   0.000001   0.000001  -0.000015  -0.000000
    19  C   -0.000000  -0.000000   0.000000  -0.000000  -0.000000   0.000000
    20  C    0.000000   0.000000  -0.000000  -0.000000   0.000000   0.000000
    21  C   -0.000012  -0.000000   0.000001   0.000000  -0.000000   0.000000
    22  C    0.000250  -0.000008  -0.000021   0.000001   0.000000   0.000000
    23  C   -0.029170   0.003080   0.000871  -0.000034   0.000001   0.000002
    24  C    0.499566  -0.048048  -0.021531   0.000283   0.000030  -0.000096
    25  H   -0.014219  -0.039211   0.349414  -0.044314   0.004872   0.000325
    26  H   -0.000175   0.004604  -0.042122   0.359700  -0.044520   0.004697
    27  H   -0.000120   0.004031   0.000556   0.004826  -0.044453   0.359547
    28  H   -0.007256  -0.039282   0.005767   0.000288   0.004784  -0.044521
    29  H   -0.037460  -0.013393  -0.000143  -0.000039   0.000013   0.000283
    30  H    0.004464  -0.000160   0.000001   0.000000  -0.000000  -0.000001
    31  H   -0.000000  -0.000000  -0.000000   0.000000   0.000000   0.000000
    32  H   -0.000000   0.000000   0.000000   0.000000  -0.000000  -0.000000
    33  H    0.000000  -0.000000  -0.000000  -0.000000   0.000000   0.000000
    34  H   -0.000000   0.000000  -0.000000   0.000000   0.000000   0.000000
    35  H   -0.000000   0.000000   0.000000   0.000000  -0.000000   0.000000
    36  H    0.000000  -0.000000  -0.000000  -0.000000   0.000000   0.000000
    37  H   -0.000000  -0.000000  -0.000000   0.000000   0.000000   0.000000
    38  H    0.000010  -0.000002   0.000001   0.000000   0.000000  -0.000000
    39  H    0.003553  -0.000105   0.000011  -0.000001  -0.000000  -0.000000
    40  H   -0.036017  -0.006798   0.001018   0.000148  -0.000004   0.000006
    41  H    0.000006   0.000579   0.005118  -0.042656   0.359870  -0.042412
    42  H    0.000000  -0.000000  -0.000000  -0.000000   0.000008   0.000000
               7          8          9         10         11         12
     1  C   -0.050166   0.537269  -0.034287  -0.036438   0.000604   0.000080
     2  C    0.500762  -0.050263   0.005935   0.000509   0.000035  -0.000000
     3  C   -0.062635  -0.000618   0.000282   0.000298  -0.000010  -0.000001
     4  C   -0.047174   0.000284  -0.000003  -0.000013  -0.000000   0.000000
     5  C   -0.036259   0.000142  -0.000009  -0.000003   0.000000   0.000000
     6  C    0.519706   0.000958  -0.000039   0.000000   0.000000   0.000000
     7  C    5.046988  -0.022263   0.000388   0.000082  -0.000001  -0.000000
     8  C   -0.022263   4.989284   0.520969  -0.033204   0.005782   0.000310
     9  C    0.000388   0.520969   4.994159   0.535380  -0.051243  -0.021577
    10  C    0.000082  -0.033204   0.535380   4.773149   0.376285  -0.049065
    11  C   -0.000001   0.005782  -0.051243   0.376285   4.773498   0.501739
    12  C   -0.000000   0.000310  -0.021577  -0.049065   0.501739   5.038221
    13  C    0.000000  -0.000039   0.000872   0.003118  -0.029035   0.517537
    14  C    0.000000  -0.000012   0.000254   0.000624  -0.036283  -0.030737
    15  C   -0.000000  -0.000000  -0.000009   0.000031   0.000674   0.003833
    16  C   -0.000000   0.000001  -0.000012  -0.000006   0.000158   0.000781
    17  C    0.000000   0.000000   0.000000  -0.000000  -0.000006  -0.000053
    18  C    0.000000  -0.000000   0.000001   0.000000  -0.000003   0.000000
    19  C    0.000000  -0.000000   0.000000  -0.000000   0.000000   0.000003
    20  C   -0.000000   0.000000  -0.000001  -0.000001   0.000115  -0.000049
    21  C    0.000000   0.000006   0.000188   0.005774  -0.033528  -0.039456
    22  C   -0.000001   0.000177   0.000876  -0.051066   0.534151  -0.064525
    23  C   -0.000109  -0.039399  -0.064336   0.501464  -0.049129   0.007843
    24  C    0.007833  -0.062627  -0.039525  -0.029185   0.003210  -0.000096
    25  H    0.006379  -0.000223  -0.000028   0.000029  -0.000003   0.000000
    26  H    0.000650   0.000001   0.000000  -0.000000  -0.000000  -0.000000
    27  H   -0.041094   0.000012  -0.000001  -0.000000   0.000000   0.000000
    28  H    0.351365   0.000824   0.000190   0.000000  -0.000000  -0.000000
    29  H    0.011040   0.348545  -0.041369   0.004400  -0.000160  -0.000026
    30  H   -0.000027  -0.041705   0.348301  -0.037168  -0.013935   0.010743
    31  H   -0.000000   0.000186   0.001215  -0.007496  -0.035377   0.350128
    32  H    0.000000  -0.000001   0.000010  -0.000108   0.003563  -0.041020
    33  H   -0.000000   0.000000  -0.000000  -0.000001   0.000003   0.000313
    34  H   -0.000000   0.000000   0.000000  -0.000000  -0.000000  -0.000001
    35  H    0.000000   0.000000   0.000000  -0.000000  -0.000000  -0.000000
    36  H   -0.000000   0.000000  -0.000000  -0.000000   0.000000   0.000004
    37  H   -0.000000   0.000000   0.000002  -0.000164   0.004440   0.000434
    38  H    0.000000  -0.000029  -0.000176  -0.013703  -0.036889   0.006354
    39  H    0.000003   0.000429   0.005673  -0.035341  -0.007482  -0.000203
    40  H   -0.000195   0.005638   0.000431   0.003547  -0.000108   0.000003
    41  H    0.004911  -0.000003   0.000000   0.000000  -0.000000  -0.000000
    42  H   -0.000000   0.000000  -0.000000  -0.000000   0.000000   0.000000
              13         14         15         16         17         18
     1  C    0.000000  -0.000005   0.000000   0.000000  -0.000000  -0.000000
     2  C   -0.000000   0.000000   0.000000  -0.000000  -0.000000  -0.000000
     3  C    0.000000   0.000001  -0.000000  -0.000000   0.000000   0.000001
     4  C    0.000000  -0.000000  -0.000000  -0.000000  -0.000000   0.000001
     5  C   -0.000000  -0.000000  -0.000000   0.000000   0.000000  -0.000015
     6  C   -0.000000  -0.000000  -0.000000   0.000000  -0.000000  -0.000000
     7  C    0.000000   0.000000  -0.000000  -0.000000   0.000000   0.000000
     8  C   -0.000039  -0.000012  -0.000000   0.000001   0.000000  -0.000000
     9  C    0.000872   0.000254  -0.000009  -0.000012   0.000000   0.000001
    10  C    0.003118   0.000624   0.000031  -0.000006  -0.000000   0.000000
    11  C   -0.029035  -0.036283   0.000674   0.000158  -0.000006  -0.000003
    12  C    0.517537  -0.030737   0.003833   0.000781  -0.000053   0.000000
    13  C    5.036713   0.508736  -0.048525  -0.022423   0.000350   0.000041
    14  C    0.508736   4.773631   0.372913  -0.052236   0.006034   0.000343
    15  C   -0.048525   0.372913   4.755743   0.530103  -0.026358  -0.031590
    16  C   -0.022423  -0.052236   0.530103   5.013643   0.526446  -0.036136
    17  C    0.000350   0.006034  -0.026358   0.526446   4.879278   0.533856
    18  C    0.000041   0.000343  -0.031590  -0.036136   0.533856   4.881673
    19  C   -0.000037   0.004417  -0.024251  -0.044895  -0.021180   0.532559
    20  C    0.007738  -0.051189   0.510480  -0.070604  -0.045766  -0.037384
    21  C   -0.070863   0.529933  -0.048294   0.004077   0.000110   0.000065
    22  C   -0.038658  -0.032958   0.005218   0.000109   0.000006  -0.000004
    23  C   -0.000099   0.000081  -0.000001  -0.000000   0.000000   0.000000
    24  C    0.000002   0.000001  -0.000000   0.000000  -0.000000  -0.000000
    25  H   -0.000000   0.000000  -0.000000  -0.000000   0.000000   0.000000
    26  H    0.000000   0.000000   0.000000  -0.000000   0.000000   0.000001
    27  H   -0.000000  -0.000000  -0.000000   0.000000   0.000000  -0.000000
    28  H    0.000000   0.000000  -0.000000  -0.000000  -0.000000   0.000000
    29  H   -0.000001  -0.000000  -0.000000  -0.000000   0.000000   0.000000
    30  H    0.000350   0.000009  -0.000002   0.000002  -0.000000   0.000000
    31  H   -0.041097   0.003589  -0.000114   0.000008  -0.000001  -0.000000
    32  H    0.348423  -0.033282  -0.009438   0.002385   0.000217  -0.000004
    33  H    0.007311  -0.013557  -0.037043   0.349045  -0.045480   0.004873
    34  H   -0.000012  -0.000156   0.004481  -0.042167   0.360083  -0.044704
    35  H    0.000003  -0.000129   0.004138   0.000607   0.004764  -0.044514
    36  H   -0.000245  -0.010578  -0.036132   0.005867   0.000327   0.004869
    37  H    0.006182  -0.035441  -0.013893  -0.000211  -0.000012  -0.000002
    38  H    0.000379   0.004251  -0.000141   0.000004   0.000000  -0.000000
    39  H    0.000004  -0.000000  -0.000000  -0.000000   0.000000   0.000000
    40  H   -0.000000  -0.000000   0.000000   0.000000  -0.000000  -0.000000
    41  H    0.000000   0.000000  -0.000000  -0.000000   0.000000   0.000008
    42  H   -0.000001   0.000005   0.000597   0.005032  -0.042478   0.359820
              19         20         21         22         23         24
     1  C   -0.000000   0.000000  -0.000012   0.000250  -0.029170   0.499566
     2  C   -0.000000   0.000000  -0.000000  -0.000008   0.003080  -0.048048
     3  C    0.000000  -0.000000   0.000001  -0.000021   0.000871  -0.021531
     4  C   -0.000000  -0.000000   0.000000   0.000001  -0.000034   0.000283
     5  C   -0.000000   0.000000  -0.000000   0.000000   0.000001   0.000030
     6  C    0.000000   0.000000   0.000000   0.000000   0.000002  -0.000096
     7  C    0.000000  -0.000000   0.000000  -0.000001  -0.000109   0.007833
     8  C   -0.000000   0.000000   0.000006   0.000177  -0.039399  -0.062627
     9  C    0.000000  -0.000001   0.000188   0.000876  -0.064336  -0.039525
    10  C   -0.000000  -0.000001   0.005774  -0.051066   0.501464  -0.029185
    11  C    0.000000   0.000115  -0.033528   0.534151  -0.049129   0.003210
    12  C    0.000003  -0.000049  -0.039456  -0.064525   0.007843  -0.000096
    13  C   -0.000037   0.007738  -0.070863  -0.038658  -0.000099   0.000002
    14  C    0.004417  -0.051189   0.529933  -0.032958   0.000081   0.000001
    15  C   -0.024251   0.510480  -0.048294   0.005218  -0.000001  -0.000000
    16  C   -0.044895  -0.070604   0.004077   0.000109  -0.000000   0.000000
    17  C   -0.021180  -0.045766   0.000110   0.000006   0.000000  -0.000000
    18  C    0.532559  -0.037384   0.000065  -0.000004   0.000000  -0.000000
    19  C    4.880084   0.524803   0.000873  -0.000069   0.000000   0.000000
    20  C    0.524803   5.043897  -0.024417   0.000544  -0.000001   0.000000
    21  C    0.000873  -0.024417   5.007803   0.523306   0.000292  -0.000038
    22  C   -0.000069   0.000544   0.523306   4.991521  -0.021129   0.000841
    23  C    0.000000  -0.000001   0.000292  -0.021129   5.043799   0.511867
    24  C    0.000000   0.000000  -0.000038   0.000841   0.511867   5.041823
    25  H   -0.000000  -0.000000   0.000000   0.000001   0.000316   0.010453
    26  H    0.000001  -0.000000   0.000000  -0.000000  -0.000001  -0.000021
    27  H   -0.000000   0.000000  -0.000000   0.000000  -0.000000   0.000003
    28  H    0.000000  -0.000000   0.000000  -0.000000   0.000005  -0.000170
    29  H    0.000000  -0.000000   0.000000   0.000002   0.000395   0.006291
    30  H    0.000000   0.000000  -0.000028  -0.000170   0.006281   0.000399
    31  H   -0.000000   0.000003   0.000430   0.005700  -0.000204   0.000005
    32  H    0.000003  -0.000237   0.005757   0.000454   0.000003  -0.000000
    33  H    0.000339   0.006240  -0.000237  -0.000006   0.000000   0.000000
    34  H    0.004741   0.000609   0.000003   0.000000   0.000000  -0.000000
    35  H    0.359937  -0.041658   0.000013  -0.000001   0.000000  -0.000000
    36  H   -0.044944   0.349253   0.001770   0.000346  -0.000000   0.000000
    37  H    0.000381   0.008517   0.347775  -0.042320  -0.000027  -0.000001
    38  H   -0.000002  -0.000020  -0.042049   0.348512   0.010601   0.000297
    39  H    0.000000  -0.000000   0.000177   0.001249   0.349581  -0.040554
    40  H   -0.000000   0.000000  -0.000001   0.000011  -0.040491   0.350397
    41  H    0.000000  -0.000000   0.000000  -0.000000   0.000000  -0.000000
    42  H   -0.042320   0.004973  -0.000002   0.000000  -0.000000   0.000000
              25         26         27         28         29         30
     1  C   -0.014219  -0.000175  -0.000120  -0.007256  -0.037460   0.004464
     2  C   -0.039211   0.004604   0.004031  -0.039282  -0.013393  -0.000160
     3  C    0.349414  -0.042122   0.000556   0.005767  -0.000143   0.000001
     4  C   -0.044314   0.359700   0.004826   0.000288  -0.000039   0.000000
     5  C    0.004872  -0.044520  -0.044453   0.004784   0.000013  -0.000000
     6  C    0.000325   0.004697   0.359547  -0.044521   0.000283  -0.000001
     7  C    0.006379   0.000650  -0.041094   0.351365   0.011040  -0.000027
     8  C   -0.000223   0.000001   0.000012   0.000824   0.348545  -0.041705
     9  C   -0.000028   0.000000  -0.000001   0.000190  -0.041369   0.348301
    10  C    0.000029  -0.000000  -0.000000   0.000000   0.004400  -0.037168
    11  C   -0.000003  -0.000000   0.000000  -0.000000  -0.000160  -0.013935
    12  C    0.000000  -0.000000   0.000000  -0.000000  -0.000026   0.010743
    13  C   -0.000000   0.000000  -0.000000   0.000000  -0.000001   0.000350
    14  C    0.000000   0.000000  -0.000000   0.000000  -0.000000   0.000009
    15  C   -0.000000   0.000000  -0.000000  -0.000000  -0.000000  -0.000002
    16  C   -0.000000  -0.000000   0.000000  -0.000000  -0.000000   0.000002
    17  C    0.000000   0.000000   0.000000  -0.000000   0.000000  -0.000000
    18  C    0.000000   0.000001  -0.000000   0.000000   0.000000   0.000000
    19  C   -0.000000   0.000001  -0.000000   0.000000   0.000000   0.000000
    20  C   -0.000000  -0.000000   0.000000  -0.000000  -0.000000   0.000000
    21  C    0.000000   0.000000  -0.000000   0.000000   0.000000  -0.000028
    22  C    0.000001  -0.000000   0.000000  -0.000000   0.000002  -0.000170
    23  C    0.000316  -0.000001  -0.000000   0.000005   0.000395   0.006281
    24  C    0.010453  -0.000021   0.000003  -0.000170   0.006291   0.000399
    25  H    0.601905  -0.007413   0.000014  -0.000192  -0.000007   0.000000
    26  H   -0.007413   0.600893  -0.000207   0.000015   0.000000   0.000000
    27  H    0.000014  -0.000207   0.599900  -0.007027   0.000022   0.000000
    28  H   -0.000192   0.000015  -0.007027   0.599433   0.002890   0.000004
    29  H   -0.000007   0.000000   0.000022   0.002890   0.592846  -0.007224
    30  H    0.000000   0.000000   0.000000   0.000004  -0.007224   0.595471
    31  H    0.000000  -0.000000   0.000000  -0.000000   0.000005   0.003040
    32  H    0.000000   0.000000  -0.000000   0.000000   0.000000   0.000014
    33  H    0.000000  -0.000000   0.000000   0.000000  -0.000000   0.000002
    34  H    0.000000   0.000000   0.000000  -0.000000   0.000000  -0.000000
    35  H   -0.000000   0.000000  -0.000000   0.000000   0.000000   0.000000
    36  H    0.000000  -0.000000   0.000000  -0.000000  -0.000000   0.000000
    37  H   -0.000000   0.000000   0.000000  -0.000000   0.000000   0.000000
    38  H    0.000013  -0.000000   0.000000   0.000000   0.000000  -0.000006
    39  H    0.000017   0.000000   0.000000   0.000000   0.000014  -0.000197
    40  H    0.002588   0.000005   0.000000   0.000000  -0.000198   0.000014
    41  H   -0.000155  -0.004741  -0.004678  -0.000146  -0.000000  -0.000000
    42  H   -0.000000  -0.000000  -0.000000  -0.000000  -0.000000   0.000000
              31         32         33         34         35         36
     1  C   -0.000000  -0.000000   0.000000  -0.000000  -0.000000   0.000000
     2  C   -0.000000   0.000000  -0.000000   0.000000   0.000000  -0.000000
     3  C   -0.000000   0.000000  -0.000000  -0.000000   0.000000  -0.000000
     4  C    0.000000   0.000000  -0.000000   0.000000   0.000000  -0.000000
     5  C    0.000000  -0.000000   0.000000   0.000000  -0.000000   0.000000
     6  C    0.000000  -0.000000   0.000000   0.000000   0.000000   0.000000
     7  C   -0.000000   0.000000  -0.000000  -0.000000   0.000000  -0.000000
     8  C    0.000186  -0.000001   0.000000   0.000000   0.000000   0.000000
     9  C    0.001215   0.000010  -0.000000   0.000000   0.000000  -0.000000
    10  C   -0.007496  -0.000108  -0.000001  -0.000000  -0.000000  -0.000000
    11  C   -0.035377   0.003563   0.000003  -0.000000  -0.000000   0.000000
    12  C    0.350128  -0.041020   0.000313  -0.000001  -0.000000   0.000004
    13  C   -0.041097   0.348423   0.007311  -0.000012   0.000003  -0.000245
    14  C    0.003589  -0.033282  -0.013557  -0.000156  -0.000129  -0.010578
    15  C   -0.000114  -0.009438  -0.037043   0.004481   0.004138  -0.036132
    16  C    0.000008   0.002385   0.349045  -0.042167   0.000607   0.005867
    17  C   -0.000001   0.000217  -0.045480   0.360083   0.004764   0.000327
    18  C   -0.000000  -0.000004   0.004873  -0.044704  -0.044514   0.004869
    19  C   -0.000000   0.000003   0.000339   0.004741   0.359937  -0.044944
    20  C    0.000003  -0.000237   0.006240   0.000609  -0.041658   0.349253
    21  C    0.000430   0.005757  -0.000237   0.000003   0.000013   0.001770
    22  C    0.005700   0.000454  -0.000006   0.000000  -0.000001   0.000346
    23  C   -0.000204   0.000003   0.000000   0.000000   0.000000  -0.000000
    24  C    0.000005  -0.000000   0.000000  -0.000000  -0.000000   0.000000
    25  H    0.000000   0.000000   0.000000   0.000000  -0.000000   0.000000
    26  H   -0.000000   0.000000  -0.000000   0.000000   0.000000  -0.000000
    27  H    0.000000  -0.000000   0.000000   0.000000  -0.000000   0.000000
    28  H   -0.000000   0.000000   0.000000  -0.000000   0.000000  -0.000000
    29  H    0.000005   0.000000  -0.000000   0.000000   0.000000  -0.000000
    30  H    0.003040   0.000014   0.000002  -0.000000   0.000000   0.000000
    31  H    0.591121  -0.006703   0.000013   0.000000   0.000000   0.000000
    32  H   -0.006703   0.591729   0.003252   0.000007   0.000000   0.000003
    33  H    0.000013   0.003252   0.605080  -0.007467   0.000014  -0.000195
    34  H    0.000000   0.000007  -0.007467   0.600940  -0.000208   0.000015
    35  H    0.000000   0.000000   0.000014  -0.000208   0.601117  -0.007383
    36  H    0.000000   0.000003  -0.000195   0.000015  -0.007383   0.600864
    37  H    0.000014  -0.000200  -0.000001   0.000000   0.000023   0.003575
    38  H   -0.000199   0.000014   0.000000   0.000000   0.000000   0.000009
    39  H    0.000002   0.000000  -0.000000   0.000000   0.000000   0.000000
    40  H    0.000000   0.000000   0.000000   0.000000   0.000000   0.000000
    41  H   -0.000000   0.000000  -0.000000  -0.000000  -0.000000  -0.000000
    42  H   -0.000000  -0.000000  -0.000154  -0.004592  -0.004628  -0.000147
              37         38         39         40         41         42
     1  C   -0.000000   0.000010   0.003553  -0.036017   0.000006   0.000000
     2  C   -0.000000  -0.000002  -0.000105  -0.006798   0.000579  -0.000000
     3  C   -0.000000   0.000001   0.000011   0.001018   0.005118  -0.000000
     4  C    0.000000   0.000000  -0.000001   0.000148  -0.042656  -0.000000
     5  C    0.000000   0.000000  -0.000000  -0.000004   0.359870   0.000008
     6  C    0.000000  -0.000000  -0.000000   0.000006  -0.042412   0.000000
     7  C   -0.000000   0.000000   0.000003  -0.000195   0.004911  -0.000000
     8  C    0.000000  -0.000029   0.000429   0.005638  -0.000003   0.000000
     9  C    0.000002  -0.000176   0.005673   0.000431   0.000000  -0.000000
    10  C   -0.000164  -0.013703  -0.035341   0.003547   0.000000  -0.000000
    11  C    0.004440  -0.036889  -0.007482  -0.000108  -0.000000   0.000000
    12  C    0.000434   0.006354  -0.000203   0.000003  -0.000000   0.000000
    13  C    0.006182   0.000379   0.000004  -0.000000   0.000000  -0.000001
    14  C   -0.035441   0.004251  -0.000000  -0.000000   0.000000   0.000005
    15  C   -0.013893  -0.000141  -0.000000   0.000000  -0.000000   0.000597
    16  C   -0.000211   0.000004  -0.000000   0.000000  -0.000000   0.005032
    17  C   -0.000012   0.000000   0.000000  -0.000000   0.000000  -0.042478
    18  C   -0.000002  -0.000000   0.000000  -0.000000   0.000008   0.359820
    19  C    0.000381  -0.000002   0.000000  -0.000000   0.000000  -0.042320
    20  C    0.008517  -0.000020  -0.000000   0.000000  -0.000000   0.004973
    21  C    0.347775  -0.042049   0.000177  -0.000001   0.000000  -0.000002
    22  C   -0.042320   0.348512   0.001249   0.000011  -0.000000   0.000000
    23  C   -0.000027   0.010601   0.349581  -0.040491   0.000000  -0.000000
    24  C   -0.000001   0.000297  -0.040554   0.350397  -0.000000   0.000000
    25  H   -0.000000   0.000013   0.000017   0.002588  -0.000155  -0.000000
    26  H    0.000000  -0.000000   0.000000   0.000005  -0.004741  -0.000000
    27  H    0.000000   0.000000   0.000000   0.000000  -0.004678  -0.000000
    28  H   -0.000000   0.000000   0.000000   0.000000  -0.000146  -0.000000
    29  H    0.000000   0.000000   0.000014  -0.000198  -0.000000  -0.000000
    30  H    0.000000  -0.000006  -0.000197   0.000014  -0.000000   0.000000
    31  H    0.000014  -0.000199   0.000002   0.000000  -0.000000  -0.000000
    32  H   -0.000200   0.000014   0.000000   0.000000   0.000000  -0.000000
    33  H   -0.000001   0.000000  -0.000000   0.000000  -0.000000  -0.000154
    34  H    0.000000   0.000000   0.000000   0.000000  -0.000000  -0.004592
    35  H    0.000023   0.000000   0.000000   0.000000  -0.000000  -0.004628
    36  H    0.003575   0.000009   0.000000   0.000000  -0.000000  -0.000147
    37  H    0.598218  -0.007318   0.000004   0.000000  -0.000000  -0.000000
    38  H   -0.007318   0.596532   0.003045   0.000011   0.000000  -0.000000
    39  H    0.000004   0.003045   0.591018  -0.006639  -0.000000  -0.000000
    40  H    0.000000   0.000011  -0.006639   0.590571  -0.000000   0.000000
    41  H   -0.000000   0.000000  -0.000000  -0.000000   0.592548   0.000014
    42  H   -0.000000  -0.000000  -0.000000   0.000000   0.000014   0.591868
 Mulliken charges:
               1
     1  C    0.084649
     2  C    0.081924
     3  C   -0.158448
     4  C   -0.131238
     5  C   -0.123378
     6  C   -0.131638
     7  C   -0.190183
     8  C   -0.160433
     9  C   -0.162512
    10  C    0.088275
    11  C    0.088936
    12  C   -0.191518
    13  C   -0.186724
    14  C    0.091742
    15  C    0.087578
    16  C   -0.169577
    17  C   -0.130137
    18  C   -0.123754
    19  C   -0.130442
    20  C   -0.185843
    21  C   -0.169428
    22  C   -0.162339
    23  C   -0.192353
    24  C   -0.191405
    25  H    0.129438
    26  H    0.128632
    27  H    0.128667
    28  H    0.133028
[...]
    29  H   -0.000000  -0.000000  -0.000000   0.000000   0.000000  -0.000000
    30  H   -0.000015  -0.000003  -0.000000   0.000000  -0.000000   0.000000
    31  H   -0.039760   0.003291  -0.000172  -0.000003  -0.000000  -0.000000
    32  H    0.348462  -0.040729  -0.009432   0.005501  -0.000032  -0.000006
    33  H    0.005642  -0.010021  -0.042037   0.350689  -0.044384   0.004752
    34  H   -0.000002  -0.000180   0.003423  -0.038863   0.356950  -0.043082
    35  H    0.000001  -0.000180   0.003423   0.000838   0.004588  -0.043082
    36  H   -0.000007  -0.010021  -0.042037   0.006359   0.000304   0.004752
    37  H    0.006236  -0.040731  -0.009432  -0.000000  -0.000009  -0.000006
    38  H    0.000554   0.003291  -0.000172   0.000001  -0.000000  -0.000000
    39  H   -0.000008  -0.000003  -0.000000   0.000000   0.000000   0.000000
    40  H   -0.000000  -0.000000  -0.000000  -0.000000  -0.000000  -0.000000
    41  H   -0.000000   0.000000   0.000000   0.000000   0.000000   0.000000
    42  H    0.000000   0.000004   0.000611   0.004777  -0.043150   0.358993
              19         20         21         22         23         24
     1  C   -0.000000  -0.000000  -0.000000   0.000003  -0.021568   0.520770
     2  C    0.000000  -0.000000  -0.000000   0.000000   0.006000  -0.048045
     3  C    0.000000   0.000000   0.000000  -0.000000   0.000362  -0.012845
     4  C    0.000000   0.000000  -0.000000   0.000000  -0.000002   0.000346
     5  C    0.000000   0.000000  -0.000000  -0.000000  -0.000000   0.000003
     6  C    0.000000   0.000000   0.000000   0.000000   0.000002  -0.000173
     7  C    0.000000   0.000000   0.000000   0.000000  -0.000178   0.005649
     8  C    0.000000   0.000000   0.000002  -0.000173  -0.047258  -0.052249
     9  C    0.000000   0.000000  -0.000173   0.005738  -0.053763  -0.047258
    10  C   -0.000000   0.000000   0.005991  -0.048031   0.520511  -0.020961
    11  C   -0.000000   0.000003  -0.020962   0.520513  -0.048032   0.005991
    12  C    0.000002  -0.000178  -0.047257  -0.053762   0.005738  -0.000173
    13  C   -0.000173   0.005650  -0.052256  -0.047258  -0.000173   0.000002
    14  C    0.005983  -0.047476   0.520764  -0.021568   0.000003  -0.000000
    15  C   -0.014020   0.522442  -0.048041   0.006001   0.000000  -0.000000
    16  C   -0.043740  -0.060459   0.005651  -0.000178   0.000000   0.000000
    17  C   -0.026383  -0.043740  -0.000173   0.000002   0.000000   0.000000
    18  C    0.548875  -0.037341   0.000003  -0.000000  -0.000000  -0.000000
    19  C    4.874011   0.514454   0.000346  -0.000002   0.000000  -0.000000
    20  C    0.514454   5.003518  -0.012848   0.000362  -0.000000   0.000000
    21  C    0.000346  -0.012848   5.030931   0.478151   0.000346  -0.000002
    22  C   -0.000002   0.000362   0.478151   5.033332  -0.012901   0.000346
    23  C    0.000000  -0.000000   0.000346  -0.012901   5.033344   0.478143
    24  C   -0.000000   0.000000  -0.000002   0.000346   0.478143   5.030925
    25  H    0.000000   0.000000  -0.000000   0.000000  -0.000021   0.005641
    26  H    0.000000   0.000000   0.000000   0.000000  -0.000000  -0.000002
    27  H    0.000000   0.000000  -0.000000  -0.000000  -0.000000   0.000001
    28  H    0.000000   0.000000   0.000000   0.000000  -0.000008  -0.000006
    29  H   -0.000000  -0.000000  -0.000000   0.000001   0.000560   0.006236
    30  H    0.000000   0.000000  -0.000008  -0.000029   0.006255   0.000554
    31  H   -0.000000   0.000001   0.000555   0.006255  -0.000029  -0.000008
    32  H   -0.000009  -0.000000   0.006236   0.000560   0.000001  -0.000000
    33  H    0.000304   0.006359  -0.000006  -0.000008   0.000000   0.000000
    34  H    0.004588   0.000838   0.000001  -0.000000  -0.000000  -0.000000
    35  H    0.356950  -0.038864  -0.000002  -0.000000   0.000000   0.000000
    36  H   -0.044383   0.350689   0.005641  -0.000021   0.000000  -0.000000
    37  H   -0.000032   0.005501   0.348462  -0.039632  -0.000003  -0.000000
    38  H   -0.000000  -0.000003  -0.039760   0.348172   0.005675  -0.000015
    39  H   -0.000000   0.000000  -0.000015   0.005675   0.348172  -0.039760
    40  H    0.000000   0.000000  -0.000000  -0.000003  -0.039632   0.348463
    41  H    0.000000   0.000000  -0.000000   0.000000   0.000000   0.000000
    42  H   -0.043150   0.004777   0.000000   0.000000   0.000000  -0.000000
              25         26         27         28         29         30
     1  C   -0.010020  -0.000180  -0.000180  -0.010018  -0.040732   0.003291
     2  C   -0.042038   0.003423   0.003423  -0.042039  -0.009430  -0.000172
     3  C    0.350690  -0.038863   0.000838   0.006359  -0.000000   0.000001
     4  C   -0.044384   0.356950   0.004588   0.000304  -0.000009  -0.000000
     5  C    0.004751  -0.043082  -0.043082   0.004751  -0.000006  -0.000000
     6  C    0.000304   0.004588   0.356950  -0.044383  -0.000032  -0.000000
     7  C    0.006359   0.000838  -0.038863   0.350691   0.005501  -0.000003
     8  C   -0.000006   0.000001  -0.000002   0.005640   0.348463  -0.039761
     9  C   -0.000008  -0.000000  -0.000000  -0.000021  -0.039632   0.348173
    10  C   -0.000004  -0.000000  -0.000000  -0.000004   0.003263  -0.040319
    11  C   -0.000000  -0.000000  -0.000000  -0.000000  -0.000172  -0.009879
    12  C    0.000000  -0.000000   0.000000   0.000000  -0.000003   0.005675
    13  C    0.000000  -0.000000   0.000000  -0.000000  -0.000000  -0.000015
    14  C    0.000000  -0.000000  -0.000000   0.000000  -0.000000  -0.000003
    15  C   -0.000000   0.000000   0.000000  -0.000000  -0.000000  -0.000000
    16  C    0.000000   0.000000   0.000000   0.000000   0.000000   0.000000
    17  C    0.000000   0.000000   0.000000   0.000000   0.000000  -0.000000
    18  C    0.000000   0.000000   0.000000   0.000000  -0.000000   0.000000
    19  C    0.000000   0.000000   0.000000   0.000000  -0.000000   0.000000
    20  C    0.000000   0.000000   0.000000   0.000000  -0.000000   0.000000
    21  C   -0.000000   0.000000  -0.000000   0.000000  -0.000000  -0.000008
    22  C    0.000000   0.000000  -0.000000   0.000000   0.000001  -0.000029
    23  C   -0.000021  -0.000000  -0.000000  -0.000008   0.000560   0.006255
    24  C    0.005641  -0.000002   0.000001  -0.000006   0.006236   0.000554
    25  H    0.599903  -0.005624   0.000017  -0.000173   0.000000   0.000000
    26  H   -0.005624   0.597166  -0.000189   0.000017   0.000000   0.000000
    27  H    0.000017  -0.000189   0.597166  -0.005624   0.000005   0.000000
    28  H   -0.000173   0.000017  -0.005624   0.599902   0.002738   0.000004
    29  H    0.000000   0.000000   0.000005   0.002738   0.595233  -0.005339
    30  H    0.000000   0.000000   0.000000   0.000004  -0.005339   0.595770
    31  H    0.000000  -0.000000   0.000000   0.000000   0.000003   0.002836
    32  H   -0.000000   0.000000  -0.000000   0.000000   0.000000   0.000003
    33  H   -0.000000   0.000000   0.000000   0.000000   0.000000   0.000000
    34  H    0.000000   0.000000   0.000000   0.000000  -0.000000   0.000000
    35  H    0.000000   0.000000   0.000000   0.000000   0.000000  -0.000000
    36  H    0.000000   0.000000   0.000000  -0.000000  -0.000000   0.000000
    37  H    0.000000  -0.000000   0.000000  -0.000000   0.000000   0.000000
    38  H    0.000000   0.000000  -0.000000   0.000000   0.000000  -0.000001
    39  H    0.000004   0.000000   0.000000   0.000000   0.000019  -0.000181
    40  H    0.002738   0.000005   0.000000   0.000000  -0.000182   0.000019
    41  H   -0.000176  -0.005509  -0.005509  -0.000176  -0.000000  -0.000000
    42  H    0.000000   0.000000   0.000000   0.000000   0.000000   0.000000
              31         32         33         34         35         36
     1  C   -0.000003  -0.000000   0.000000  -0.000000  -0.000000   0.000000
     2  C   -0.000000  -0.000000  -0.000000   0.000000   0.000000  -0.000000
     3  C    0.000000  -0.000000   0.000000   0.000000   0.000000   0.000000
     4  C    0.000000  -0.000000   0.000000   0.000000   0.000000   0.000000
     5  C    0.000000  -0.000000   0.000000   0.000000   0.000000   0.000000
     6  C   -0.000000   0.000000   0.000000   0.000000   0.000000   0.000000
     7  C    0.000000   0.000000   0.000000   0.000000   0.000000   0.000000
     8  C   -0.000015  -0.000000  -0.000000   0.000000  -0.000000   0.000000
     9  C    0.005673  -0.000003   0.000000   0.000000  -0.000000   0.000000
    10  C   -0.009878  -0.000172  -0.000000  -0.000000  -0.000000  -0.000000
    11  C   -0.040319   0.003263  -0.000004  -0.000000  -0.000000  -0.000004
    12  C    0.348174  -0.039633  -0.000021  -0.000000  -0.000000  -0.000008
    13  C   -0.039760   0.348462   0.005642  -0.000002   0.000001  -0.000007
    14  C    0.003291  -0.040729  -0.010021  -0.000180  -0.000180  -0.010021
    15  C   -0.000172  -0.009432  -0.042037   0.003423   0.003423  -0.042037
    16  C   -0.000003   0.005501   0.350689  -0.038863   0.000838   0.006359
    17  C   -0.000000  -0.000032  -0.044384   0.356950   0.004588   0.000304
    18  C   -0.000000  -0.000006   0.004752  -0.043082  -0.043082   0.004752
    19  C   -0.000000  -0.000009   0.000304   0.004588   0.356950  -0.044383
    20  C    0.000001  -0.000000   0.006359   0.000838  -0.038864   0.350689
    21  C    0.000555   0.006236  -0.000006   0.000001  -0.000002   0.005641
    22  C    0.006255   0.000560  -0.000008  -0.000000  -0.000000  -0.000021
    23  C   -0.000029   0.000001   0.000000  -0.000000   0.000000   0.000000
    24  C   -0.000008  -0.000000   0.000000  -0.000000   0.000000  -0.000000
    25  H    0.000000  -0.000000  -0.000000   0.000000   0.000000   0.000000
    26  H   -0.000000   0.000000   0.000000   0.000000   0.000000   0.000000
    27  H    0.000000  -0.000000   0.000000   0.000000   0.000000   0.000000
    28  H    0.000000   0.000000   0.000000   0.000000   0.000000  -0.000000
    29  H    0.000003   0.000000   0.000000  -0.000000   0.000000  -0.000000
    30  H    0.002836   0.000003   0.000000   0.000000  -0.000000   0.000000
    31  H    0.595769  -0.005340   0.000004   0.000000   0.000000   0.000000
    32  H   -0.005340   0.595234   0.002739   0.000005   0.000000   0.000000
    33  H    0.000004   0.002739   0.599905  -0.005625   0.000017  -0.000173
    34  H    0.000000   0.000005  -0.005625   0.597166  -0.000189   0.000017
    35  H    0.000000   0.000000   0.000017  -0.000189   0.597167  -0.005625
    36  H    0.000000   0.000000  -0.000173   0.000017  -0.005625   0.599903
    37  H    0.000019  -0.000182   0.000000   0.000000   0.000005   0.002739
    38  H   -0.000181   0.000019   0.000000   0.000000   0.000000   0.000004
    39  H   -0.000001   0.000000   0.000000  -0.000000   0.000000   0.000000
    40  H    0.000000   0.000000  -0.000000   0.000000  -0.000000   0.000000
    41  H    0.000000   0.000000   0.000000   0.000000   0.000000   0.000000
    42  H   -0.000000  -0.000000  -0.000176  -0.005509  -0.005509  -0.000176
              37         38         39         40         41         42
     1  C   -0.000000  -0.000003   0.003291  -0.040731   0.000004   0.000000
     2  C   -0.000000  -0.000000  -0.000172  -0.009430   0.000611   0.000000
     3  C    0.000000   0.000000  -0.000003   0.005500   0.004777   0.000000
     4  C    0.000000  -0.000000  -0.000000  -0.000032  -0.043150   0.000000
     5  C   -0.000000   0.000000  -0.000000  -0.000006   0.358993   0.000000
     6  C   -0.000000   0.000000  -0.000000  -0.000009  -0.043150   0.000000
     7  C   -0.000000   0.000000   0.000001  -0.000000   0.004777   0.000000
     8  C   -0.000000  -0.000008   0.000554   0.006236   0.000000  -0.000000
     9  C    0.000001  -0.000029   0.006255   0.000560   0.000000   0.000000
    10  C   -0.000172  -0.009880  -0.040318   0.003263  -0.000000  -0.000000
    11  C    0.003264  -0.040318  -0.009880  -0.000172  -0.000000  -0.000000
    12  C    0.000560   0.006255  -0.000029   0.000001   0.000000   0.000000
    13  C    0.006236   0.000554  -0.000008  -0.000000  -0.000000   0.000000
    14  C   -0.040731   0.003291  -0.000003  -0.000000   0.000000   0.000004
    15  C   -0.009432  -0.000172  -0.000000  -0.000000   0.000000   0.000611
    16  C   -0.000000   0.000001   0.000000  -0.000000   0.000000   0.004777
    17  C   -0.000009  -0.000000   0.000000  -0.000000   0.000000  -0.043150
    18  C   -0.000006  -0.000000   0.000000  -0.000000   0.000000   0.358993
    19  C   -0.000032  -0.000000  -0.000000   0.000000   0.000000  -0.043150
    20  C    0.005501  -0.000003   0.000000   0.000000   0.000000   0.004777
    21  C    0.348462  -0.039760  -0.000015  -0.000000  -0.000000   0.000000
    22  C   -0.039632   0.348172   0.005675  -0.000003   0.000000   0.000000
    23  C   -0.000003   0.005675   0.348172  -0.039632   0.000000   0.000000
    24  C   -0.000000  -0.000015  -0.039760   0.348463   0.000000  -0.000000
    25  H    0.000000   0.000000   0.000004   0.002738  -0.000176   0.000000
    26  H   -0.000000   0.000000   0.000000   0.000005  -0.005509   0.000000
    27  H    0.000000  -0.000000   0.000000   0.000000  -0.005509   0.000000
    28  H   -0.000000   0.000000   0.000000   0.000000  -0.000176   0.000000
    29  H    0.000000   0.000000   0.000019  -0.000182  -0.000000   0.000000
    30  H    0.000000  -0.000001  -0.000181   0.000019  -0.000000   0.000000
    31  H    0.000019  -0.000181  -0.000001   0.000000   0.000000  -0.000000
    32  H   -0.000182   0.000019   0.000000   0.000000   0.000000  -0.000000
    33  H    0.000000   0.000000   0.000000  -0.000000   0.000000  -0.000176
    34  H    0.000000   0.000000  -0.000000   0.000000   0.000000  -0.005509
    35  H    0.000005   0.000000   0.000000  -0.000000   0.000000  -0.005509
    36  H    0.002739   0.000004   0.000000   0.000000   0.000000  -0.000176
    37  H    0.595235  -0.005340   0.000003   0.000000   0.000000  -0.000000
    38  H   -0.005340   0.595772   0.002837   0.000003   0.000000  -0.000000
    39  H    0.000003   0.002837   0.595769  -0.005339  -0.000000   0.000000
    40  H    0.000000   0.000003  -0.005339   0.595232  -0.000000   0.000000
    41  H    0.000000   0.000000  -0.000000  -0.000000   0.598811   0.000000
    42  H   -0.000000  -0.000000   0.000000   0.000000   0.000000   0.598810
 Mulliken charges:
               1
     1  C    0.094595
     2  C    0.089220
     3  C   -0.173680
     4  C   -0.133622
     5  C   -0.126760
     6  C   -0.133620
     7  C   -0.173685
     8  C   -0.181569
     9  C   -0.181542
    10  C    0.095798
    11  C    0.095798
    12  C   -0.181548
    13  C   -0.181574
    14  C    0.094602
    15  C    0.089229
    16  C   -0.173686
    17  C   -0.133621
    18  C   -0.126761
    19  C   -0.133620
    20  C   -0.173686
    21  C   -0.181575
    22  C   -0.181543
    23  C   -0.181545
    24  C   -0.181576
    25  H    0.132045
    26  H    0.130461
    27  H    0.130460
    28  H    0.132045
    29  H    0.133513
    30  H    0.133126
    31  H    0.133127
    32  H    0.133513
    33  H    0.132044
    34  H    0.130460
    35  H    0.130460
    36  H    0.132045
    37  H    0.133512
    38  H    0.133126
    39  H    0.133127
    40  H    0.133513
    41  H    0.129696
    42  H    0.129696
 Sum of Mulliken charges =  -0.00000
 Mulliken charges with hydrogens summed into heavy atoms:
               1
     1  C    0.094595
     2  C    0.089220
     3  C   -0.041636
     4  C   -0.003161
     5  C    0.002936
     6  C   -0.003160
     7  C   -0.041639
     8  C   -0.048055
     9  C   -0.048416
    10  C    0.095798
    11  C    0.095798
    12  C   -0.048421
    13  C   -0.048061
    14  C    0.094602
    15  C    0.089229
    16  C   -0.041642
    17  C   -0.003161
    18  C    0.002935
    19  C   -0.003160
    20  C   -0.041641
    21  C   -0.048063
    22  C   -0.048417
    23  C   -0.048418
    24  C   -0.048062
 Electronic spatial extent (au):  <R**2>=          15604.3039
 Charge=             -0.0000 electrons
 Dipole moment (field-independent basis, Debye):
    X=              0.0000    Y=              0.0000    Z=              0.0001  Tot=              0.0001
 Quadrupole moment (field-independent basis, Debye-Ang):
   XX=           -119.1822   YY=           -123.8568   ZZ=           -144.6652
   XY=              0.0002   XZ=             -0.0005   YZ=             -0.0000
 Traceless Quadrupole moment (field-independent basis, Debye-Ang):
   XX=             10.0526   YY=              5.3779   ZZ=            -15.4304
   XY=              0.0002   XZ=             -0.0005   YZ=             -0.0000
 Octapole moment (field-independent basis, Debye-Ang**2):
  XXX=              0.0014  YYY=              0.0003  ZZZ=              0.0005  XYY=             -0.0028
  XXY=             -0.0010  XXZ=             -0.0031  XZZ=              0.0024  YZZ=             -0.0003
  YYZ=              0.0005  XYZ=            -20.2121
 Hexadecapole moment (field-independent basis, Debye-Ang**3):
 XXXX=         -18235.2207 YYYY=           -997.5578 ZZZZ=           -267.6405 XXXY=             -0.0033
 XXXZ=             -0.0261 YYYX=              0.0028 YYYZ=              0.0000 ZZZX=             -0.0011
 ZZZY=             -0.0001 XXYY=          -3298.4895 XXZZ=          -3709.5035 YYZZ=           -217.8911
 XXYZ=             -0.0129 YYXZ=             -0.0056 ZZXY=              0.0038
 N-N= 1.646371730473D+03 E-N=-5.434750791149D+03  KE= 9.163233874756D+02
 1\1\GINC-N095\FOpt\RB3LYP\6-31G(d)\C24H18\CCOLWELL\18-Apr-2019\0\\#n B
 3LYP/6-31G(d) opt\\geometry optimization\\0,1\C,3.5877895694,0.1749142
 185,0.0324435494\C,5.0717784671,0.1875861766,0.0469137376\C,5.78038192
 15,0.5977463571,1.1893982045\C,7.1742093603,0.6091441108,1.2036011619\
 C,7.8926381922,0.2116944447,0.0744378232\C,7.203275547,-0.1978089002,-
 1.0684498345\C,5.8094399619,-0.2102400888,-1.0814476133\C,2.8668363916
 ,0.532587887,-1.1193073045\C,1.4757851507,0.520983934,-1.1328940275\C,
 0.7384203925,0.1506837656,0.0046795447\C,-0.7440294052,0.1381378914,-0
 .0097234799\C,-1.4590796533,-0.2468573501,-1.1566224246\C,-2.850134788
 5,-0.2584036725,-1.1700790362\C,-3.5934087554,0.1140022636,-0.03734243
 96\C,-5.077389136,0.1014691651,-0.0517421002\C,-5.7927479934,0.4845043
 677,-1.1994192827\C,-7.1865681779,0.4721854093,-1.2135489644\C,-7.8982
 596561,0.0775818569,-0.0791351034\C,-7.2021508319,-0.3051250588,1.0689
 398903\C,-5.8083089115,-0.2938596356,1.0818757235\C,-2.8786465364,0.49
 87316783,1.1095356301\C,-1.4876025134,0.5107174886,1.123052601\C,1.459
 6689758,-0.2071782602,1.1564748443\C,2.850720618,-0.1951348966,1.16999
 31312\H,5.231965756,0.935632101,2.064351138\H,7.6999538857,0.938152663
 8,2.0962376943\H,7.75187783,-0.5176645051,-1.9505955818\H,5.2840631368
 ,-0.5573402814,-1.9668681276\H,3.4037079011,0.8590896707,-2.0056466872
 \H,0.9512593094,0.8391437541,-2.0295773286\H,-0.9171992995,-0.57652573
 25,-2.038709218\H,-3.369619523,-0.5963602937,-2.0624632205\H,-5.250072
 6089,0.820036983,-2.0788449918\H,-7.7177150835,0.7804840375,-2.1103696
 003\H,-7.745314059,-0.6225659513,1.9553136736\H,-5.2772112274,-0.62035
 7005,1.9717105424\H,-3.4209842973,0.8276500006,1.9916442979\H,-0.96857
 24858,0.8492904779,2.0154505227\H,0.9232523443,-0.5343190261,2.0428335
 581\H,3.3756933883,-0.5125917934,2.0666849546\H,8.9791897387,0.2209763
 989,0.0850427795\H,-8.9848128949,0.0683663486,-0.0896926362\\Version=E
 M64L-G09RevE.01\State=1-A\HF=-925.4215225\RMSD=9.197e-09\RMSF=2.092e-0
 6\Dipole=0.0000041,-0.0000285,0.0000074\Quadrupole=7.4721426,-11.47013
 07,3.9979881,0.1602492,0.033049,0.101706\PG=C01 [X(C24H18)]\\@


 EVERYTHING'S GOT A MORAL, IF ONLY YOU CAN FIND IT.

                                    -- LEWIS CARROL, ALICE IN WONDERLAND
 Job cpu time:       0 days  0 hours 54 minutes 47.5 seconds.
 File lengths (MBytes):  RWF=     99 Int=      0 D2E=      0 Chk=     12 Scr=      1
 Normal termination of Gaussian 09 at Thu Apr 18 11:13:29 2019.
