
                                 *****************
                                 * O   R   C   A *
                                 *****************

           --- An Ab Initio, DFT and Semiempirical electronic structure package ---

                  #######################################################
                  #                        -***-                        #
                  #          Department of theory and spectroscopy      #
                  #               Directorship: Frank Neese             #
                  #        Max Planck Institute fuer Kohlenforschung    #
                  #                Kaiser Wilhelm Platz 1               #
                  #                 D-45470 Muelheim/Ruhr               #
                  #                      Germany                        #
                  #                                                     #
                  #                  All rights reserved                #
                  #                        -***-                        #
                  #######################################################


                         Program Version 4.2.1 -  RELEASE  -


 With contributions from (in alphabetic order):
   Daniel Aravena         : Magnetic Suceptibility
   Michael Atanasov       : Ab Initio Ligand Field Theory (pilot matlab implementation)
   Alexander A. Auer      : GIAO ZORA, VPT2
   Ute Becker             : Parallelization
   Giovanni Bistoni       : ED, misc. LED, open-shell LED, HFLD
   Martin Brehm           : Molecular dynamics
   Dmytro Bykov           : SCF Hessian
   Vijay G. Chilkuri      : MRCI spin determinant printing, contributions to CSF-ICE
   Dipayan Datta          : RHF DLPNO-CCSD density
   Achintya Kumar Dutta   : EOM-CC, STEOM-CC
   Dmitry Ganyushin       : Spin-Orbit,Spin-Spin,Magnetic field MRCI
   Miquel Garcia          : C-PCM Hessian, Gaussian charge scheme
   Yang Guo               : DLPNO-NEVPT2, CIM, IAO-localization
   Andreas Hansen         : Spin unrestricted coupled pair/coupled cluster methods
   Benjamin Helmich-Paris : CASSCF linear response (MC-RPA)
   Lee Huntington         : MR-EOM, pCC
   Robert Izsak           : Overlap fitted RIJCOSX, COSX-SCS-MP3, EOM
   Christian Kollmar      : KDIIS, OOCD, Brueckner-CCSD(T), CCSD density
   Simone Kossmann        : Meta GGA functionals, TD-DFT gradient, OOMP2, MP2 Hessian
   Martin Krupicka        : AUTO-CI
   Lucas Lang             : DCDCAS
   Dagmar Lenk            : GEPOL surface, SMD
   Dimitrios Liakos       : Extrapolation schemes; Compound Job, initial MDCI parallelization
   Dimitrios Manganas     : Further ROCIS development; embedding schemes
   Dimitrios Pantazis     : SARC Basis sets
   Taras Petrenko         : DFT Hessian,TD-DFT gradient, ASA, ECA, R-Raman, ABS, FL, XAS/XES, NRVS
   Peter Pinski           : DLPNO-MP2, DLPNO-MP2 Gradient
   Christoph Reimann      : Effective Core Potentials
   Marius Retegan         : Local ZFS, SOC
   Christoph Riplinger    : Optimizer, TS searches, QM/MM, DLPNO-CCSD(T), (RO)-DLPNO pert. Triples
   Tobias Risthaus        : Range-separated hybrids, TD-DFT gradient, RPA, STAB
   Michael Roemelt        : Original ROCIS implementation
   Masaaki Saitow         : Open-shell DLPNO-CCSD energy and density
   Barbara Sandhoefer     : DKH picture change effects
   Avijit Sen             : IP-ROCIS
   Kantharuban Sivalingam : CASSCF convergence, NEVPT2, FIC-MRCI
   Bernardo de Souza      : ESD, SOC TD-DFT
   Georgi Stoychev        : AutoAux, RI-MP2 NMR
   Willem Van den Heuvel  : Paramagnetic NMR
   Boris Wezisla          : Elementary symmetry handling
   Frank Wennmohs         : Technical directorship


 We gratefully acknowledge several colleagues who have allowed us to
 interface, adapt or use parts of their codes:
   Stefan Grimme, W. Hujo, H. Kruse,             : VdW corrections, initial TS optimization,
                  C. Bannwarth                     DFT functionals, gCP, sTDA/sTD-DF
   Ed Valeev, F. Pavosevic, A. Kumar             : LibInt (2-el integral package), F12 methods
   Garnet Chan, S. Sharma, J. Yang, R. Olivares  : DMRG
   Ulf Ekstrom                                   : XCFun DFT Library
   Mihaly Kallay                                 : mrcc  (arbitrary order and MRCC methods)
   Andreas Klamt, Michael Diedenhofen            : otool_cosmo (COSMO solvation model)
   Jiri Pittner, Ondrej Demel                    : Mk-CCSD
   Frank Weinhold                                : gennbo (NPA and NBO analysis)
   Christopher J. Cramer and Donald G. Truhlar   : smd solvation model
   Lars Goerigk                                  : TD-DFT with DH, B97 family of functionals
   V. Asgeirsson, H. Jonsson                     : NEB implementation
   FAccTs GmbH                                   : IRC, NEB, NEB-TS, Multilevel, MM, QM/MM, CI optimization
   S Lehtola, MJT Oliveira, MAL Marques          : LibXC Library


 Your calculation uses the libint2 library for the computation of 2-el integrals
 For citations please refer to: http://libint.valeyev.net

 Your ORCA version has been built with support for libXC version: 4.2.3
 For citations please refer to: https://tddft.org/programs/libxc/

 This ORCA versions uses:
   CBLAS   interface :  Fast vector & matrix operations
   LAPACKE interface :  Fast linear algebra routines
   SCALAPACK package :  Parallel linear algebra routines


----- Orbital basis set information -----
Your calculation utilizes the basis: STO-3G
   H-Ne       : W. J. Hehre, R. F. Stewart and J. A. Pople, J. Chem. Phys. 2657 (1969).
   Na-Ar      : W. J. Hehre, R. Ditchfield, R. F. Stewart and J. A. Pople, J. Chem. Phys. 2769 (1970).
   K,Ca,Ga-Kr : W. J. Pietro, B. A. Levy, W. J. Hehre and R. F. Stewart, J. Am. Chem. Soc. 19, 2225 (1980).
   Sc-Zn,Y-Cd : W. J. Pietro and W. J. Hehre, J. Comp. Chem. 4, 241 (1983).

================================================================================
                                        WARNINGS
                       Please study these warnings very carefully!
================================================================================


WARNING: Geometry Optimization
  ===> : Switching off AutoStart
         For restart on a previous wavefunction, please use MOREAD

INFO   : the flag for use of LIBINT has been found!

================================================================================
                                       INPUT FILE
================================================================================
NAME = dummy3.inp
|  1> ! B3LYP OPT STO-3G
|  2> %pal
|  3> 	nprocs 28
|  4> end
|  5> * xyz 0 1
|  6>   C     -3.452440    0.712200    0.112300
|  7>   C     -2.854410    2.067000   -0.087770
|  8>   C     -2.180790    2.294020   -1.303530
|  9>   C     -0.978290    2.991150   -1.337050
| 10>   C     -0.394940    3.491070   -0.156240
| 11>   C      1.085330    3.355000   -0.004690
| 12>   C      1.935590    3.128250   -1.108620
| 13>   C      2.967690    2.195930   -1.036350
| 14>   C      3.201690    1.456150    0.144260
| 15>   C      2.625670    1.998840    1.311420
| 16>   C      1.586750    2.919730    1.238160
| 17>   C     -1.263000    3.595630    0.953140
| 18>   C     -2.468100    2.896110    0.987490
| 19>   C     -3.146900    0.051140    1.317720
| 20>   C     -2.852670   -1.307900    1.334290
| 21>   C     -2.850710   -2.064690    0.146350
| 22>   C     -1.750560   -3.060350   -0.028940
| 23>   C     -1.025270   -3.587410    1.061510
| 24>   C      0.359930   -3.723820    0.999750
| 25>   C      1.078790   -3.341450   -0.154950
| 26>   C      0.306000   -3.214710   -1.327120
| 27>   C     -1.075390   -3.072660   -1.265180
| 28>   C     -3.530490   -1.484270   -0.947070
| 29>   C     -3.824850   -0.121940   -0.964160
| 30>   H     -2.470040    1.740800   -2.191530
| 31>   H     -0.396430    2.946550   -2.251890
| 32>   H      1.699310    3.559720   -2.077720
| 33>   H      3.484470    1.937480   -1.956170
| 34>   H      2.836720    1.561420    2.281440
| 35>   H      1.036660    3.132860    2.149380
| 36>   H     -0.933730    4.101650    1.857050
| 37>   H     -3.032730    2.880270    1.916480
| 38>   H     -2.915890    0.629970    2.206500
| 39>   H     -2.408990   -1.717030    2.236330
| 40>   H     -1.518110   -3.748470    2.016950
| 41>   H      0.889060   -3.984550    1.912210
| 42>   H      0.786250   -3.012770   -2.278630
| 43>   H     -1.591470   -2.756600   -2.166300
| 44>   H     -3.697240   -2.061540   -1.853050
| 45>   H     -4.208860    0.314830   -1.882820
| 46>   H      3.927006    0.633881    0.181459
| 47>   H      2.175554   -3.323817   -0.177385
| 48> 
| 49> **                         ****END OF INPUT****
================================================================================

                       *****************************
                       * Geometry Optimization Run *
                       *****************************

Geometry optimization settings:
Update method            Update   .... BFGS
Choice of coordinates    CoordSys .... Z-matrix Internals
Initial Hessian          InHess   .... Almoef's Model

Convergence Tolerances:
Energy Change            TolE     ....  5.0000e-06 Eh
Max. Gradient            TolMAXG  ....  3.0000e-04 Eh/bohr
RMS Gradient             TolRMSG  ....  1.0000e-04 Eh/bohr
Max. Displacement        TolMAXD  ....  4.0000e-03 bohr
RMS Displacement         TolRMSD  ....  2.0000e-03 bohr
Strict Convergence                ....  False
------------------------------------------------------------------------------
                        ORCA OPTIMIZATION COORDINATE SETUP
------------------------------------------------------------------------------

The optimization will be done in new redundant internal coordinates
Making redundant internal coordinates   ...  (new redundants) done
Evaluating the initial hessian          ...  (Almloef) done
Evaluating the coordinates              ...  done
Calculating the B-matrix                .... done
Calculating the G-matrix                .... done
Diagonalizing the G-matrix              .... done
Small eigenvalue found = 2.933e-03
Small eigenvalue found = 7.580e-03
Small eigenvalue found = 1.256e-02
Small eigenvalue found = 1.733e-02
Small eigenvalue found = 2.278e-02
The first mode is                       ....  106
The number of degrees of freedom        ....  120

    -----------------------------------------------------------------
                    Redundant Internal Coordinates


    -----------------------------------------------------------------
         Definition                    Initial Value    Approx d2E/dq
    -----------------------------------------------------------------
      1. B(C   1,C   0)                  1.4944         0.425812   
      2. B(C   2,C   1)                  1.4083         0.584124   
      3. B(C   3,C   2)                  1.3904         0.623955   
      4. B(C   4,C   3)                  1.4087         0.583245   
      5. B(C   5,C   4)                  1.4942         0.426058   
      6. B(C   6,C   5)                  1.4117         0.576831   
      7. B(C   7,C   6)                  1.3927         0.618580   
      8. B(C   8,C   7)                  1.4128         0.574696   
      9. B(C   9,C   8)                  1.4102         0.580179   
     10. B(C  10,C   9)                  1.3902         0.624252   
     11. B(C  10,C   5)                  1.4091         0.582463   
     12. B(C  11,C   4)                  1.4125         0.575208   
     13. B(C  12,C  11)                  1.3938         0.616057   
     14. B(C  12,C   1)                  1.4117         0.576963   
     15. B(C  13,C   0)                  1.4083         0.584110   
     16. B(C  14,C  13)                  1.3906         0.623365   
     17. B(C  15,C  14)                  1.4085         0.583696   
     18. B(C  16,C  15)                  1.4941         0.426208   
     19. B(C  17,C  16)                  1.4117         0.576906   
     20. B(C  18,C  17)                  1.3933         0.617336   
     21. B(C  19,C  18)                  1.4129         0.574376   
     22. B(C  20,C  19)                  1.4097         0.581180   
     23. B(C  21,C  20)                  1.3901         0.624670   
     24. B(C  21,C  16)                  1.4087         0.583423   
     25. B(C  22,C  15)                  1.4123         0.575679   
     26. B(C  23,C  22)                  1.3939         0.615969   
     27. B(C  23,C   0)                  1.4118         0.576661   
     28. B(H  24,C   2)                  1.0855         0.366132   
     29. B(H  25,C   3)                  1.0851         0.366616   
     30. B(H  26,C   6)                  1.0868         0.364349   
     31. B(H  27,C   7)                  1.0862         0.365103   
     32. B(H  28,C   9)                  1.0848         0.367029   
     33. B(H  29,C  10)                  1.0855         0.366081   
     34. B(H  30,C  11)                  1.0870         0.364116   
     35. B(H  31,C  12)                  1.0872         0.363776   
     36. B(H  32,C  13)                  1.0855         0.366084   
     37. B(H  33,C  14)                  1.0853         0.366347   
     38. B(H  34,C  17)                  1.0871         0.364012   
     39. B(H  35,C  18)                  1.0865         0.364723   
     40. B(H  36,C  20)                  1.0848         0.367045   
     41. B(H  37,C  21)                  1.0855         0.366140   
     42. B(H  38,C  22)                  1.0871         0.363920   
     43. B(H  39,C  23)                  1.0873         0.363722   
     44. B(H  40,C   8)                  1.0971         0.350850   
     45. B(H  41,H  40)                  4.3428         0.000000   
     46. B(H  41,C  19)                  1.0971         0.350784   
     47. A(C   1,C   0,C  23)          122.6240         0.400779   
     48. A(C   1,C   0,C  13)          116.9571         0.401686   
     49. A(C  13,C   0,C  23)          115.6267         0.423902   
     50. A(C   0,C   1,C   2)          116.9450         0.401688   
     51. A(C   2,C   1,C  12)          115.5929         0.423943   
     52. A(C   0,C   1,C  12)          122.6838         0.400816   
     53. A(C   1,C   2,C   3)          121.0189         0.429932   
     54. A(C   3,C   2,H  24)          117.7934         0.354285   
     55. A(C   1,C   2,H  24)          119.7755         0.350353   
     56. A(C   4,C   3,H  25)          119.9480         0.350342   
     57. A(C   2,C   3,H  25)          117.6120         0.354364   
     58. A(C   2,C   3,C   4)          121.0555         0.429816   
     59. A(C   5,C   4,C  11)          122.4048         0.400642   
     60. A(C   3,C   4,C  11)          115.4746         0.423598   
     61. A(C   3,C   4,C   5)          117.5763         0.401622   
     62. A(C   4,C   5,C   6)          122.1388         0.400840   
     63. A(C   4,C   5,C  10)          118.0415         0.401527   
     64. A(C   6,C   5,C  10)          115.1996         0.423710   
     65. A(C   7,C   6,H  26)          118.2390         0.353473   
     66. A(C   5,C   6,C   7)          120.8820         0.428299   
     67. A(C   5,C   6,H  26)          120.1699         0.349323   
     68. A(C   8,C   7,H  27)          120.2819         0.349227   
     69. A(C   6,C   7,H  27)          117.8979         0.353597   
     70. A(C   6,C   7,C   8)          121.1078         0.428014   
     71. A(C   9,C   8,H  40)          122.0346         0.347447   
     72. A(C   7,C   8,H  40)          122.0267         0.346892   
     73. A(C   7,C   8,C   9)          114.9922         0.423132   
     74. A(C   8,C   9,C  10)          121.1015         0.429446   
     75. A(C  10,C   9,H  28)          117.3613         0.354460   
     76. A(C   8,C   9,H  28)          120.3610         0.350097   
     77. A(C   5,C  10,C   9)          121.1322         0.429749   
     78. A(C   5,C  10,H  29)          119.9617         0.350177   
     79. A(C   9,C  10,H  29)          117.6789         0.354305   
     80. A(C  12,C  11,H  30)          118.3622         0.353190   
     81. A(C   4,C  11,H  30)          120.0939         0.349120   
     82. A(C   4,C  11,C  12)          120.9001         0.427769   
     83. A(C   1,C  12,H  31)          120.0102         0.349244   
     84. A(C   1,C  12,C  11)          120.8361         0.428003   
     85. A(C  11,C  12,H  31)          118.5141         0.353135   
     86. A(C  14,C  13,H  32)          117.7968         0.354220   
     87. A(C   0,C  13,H  32)          119.7801         0.350344   
     88. A(C   0,C  13,C  14)          120.9863         0.429858   
     89. A(C  13,C  14,H  33)          117.6975         0.354263   
     90. A(C  15,C  14,H  33)          119.8584         0.350345   
     91. A(C  13,C  14,C  15)          121.0199         0.429803   
     92. A(C  14,C  15,C  22)          115.5619         0.423719   
     93. A(C  14,C  15,C  16)          117.2592         0.401702   
     94. A(C  16,C  15,C  22)          122.5105         0.400724   
     95. A(C  17,C  16,C  21)          115.3647         0.423845   
     96. A(C  15,C  16,C  21)          117.4971         0.401668   
     97. A(C  15,C  16,C  17)          122.4437         0.400874   
     98. A(C  18,C  17,H  34)          118.3723         0.353297   
     99. A(C  16,C  17,H  34)          120.0859         0.349276   
    100. A(C  16,C  17,C  18)          120.8709         0.428155   
    101. A(C  19,C  18,H  35)          120.2314         0.349133   
    102. A(C  17,C  18,H  35)          118.0628         0.353414   
    103. A(C  17,C  18,C  19)          121.0353         0.427817   
    104. A(C  18,C  19,C  20)          115.1486         0.423220   
    105. A(C  20,C  19,H  41)          121.9758         0.347536   
    106. A(C  18,C  19,H  41)          121.9832         0.346848   
    107. A(C  21,C  20,H  36)          117.3877         0.354503   
    108. A(C  19,C  20,H  36)          120.2240         0.350202   
    109. A(C  19,C  20,C  21)          121.1255         0.429631   
    110. A(C  16,C  21,H  37)          119.8765         0.350283   
    111. A(C  16,C  21,C  20)          121.0853         0.429928   
    112. A(C  20,C  21,H  37)          117.7259         0.354355   
    113. A(C  15,C  22,C  23)          120.8518         0.427821   
    114. A(C  23,C  22,H  38)          118.4491         0.353150   
    115. A(C  15,C  22,H  38)          120.0536         0.349136   
    116. A(C   0,C  23,C  22)          120.8239         0.427952   
    117. A(C  22,C  23,H  39)          118.5265         0.353117   
    118. A(C   0,C  23,H  39)          120.0027         0.349205   
    119. D(C  12,C   1,C   0,C  23)   -179.2887         0.012396   
    120. D(C  12,C   1,C   0,C  13)    -24.9093         0.012396   
    121. D(C   2,C   1,C   0,C  23)    -24.8840         0.012396   
    122. D(C   2,C   1,C   0,C  13)    129.4954         0.012396   
    123. D(H  24,C   2,C   1,C   0)     27.8398         0.023457   
    124. D(C   3,C   2,C   1,C  12)     17.9241         0.023457   
    125. D(H  24,C   2,C   1,C  12)   -175.9364         0.023457   
    126. D(C   3,C   2,C   1,C   0)   -138.2998         0.023457   
    127. D(H  25,C   3,C   2,H  24)      0.2264         0.026961   
    128. D(C   4,C   3,C   2,H  24)   -166.3331         0.026961   
    129. D(H  25,C   3,C   2,C   1)    166.6320         0.026961   
    130. D(C   4,C   3,C   2,C   1)      0.0725         0.026961   
    131. D(C  11,C   4,C   3,C   2)    -18.0755         0.023383   
    132. D(C   5,C   4,C   3,C   2)    138.6340         0.023383   
    133. D(C   5,C   4,C   3,H  25)    -27.6151         0.023383   
    134. D(C  11,C   4,C   3,H  25)    175.6753         0.023383   
    135. D(C  10,C   5,C   4,C  11)     19.3413         0.012410   
    136. D(C  10,C   5,C   4,C   3)   -135.6481         0.012410   
    137. D(C   6,C   5,C   4,C  11)    174.0746         0.012410   
    138. D(C   6,C   5,C   4,C   3)     19.0852         0.012410   
    139. D(H  26,C   6,C   5,C  10)   -170.9442         0.022849   
    140. D(H  26,C   6,C   5,C   4)     33.6601         0.022849   
    141. D(C   7,C   6,C   5,C  10)     18.8741         0.022849   
    142. D(C   7,C   6,C   5,C   4)   -136.5216         0.022849   
    143. D(H  27,C   7,C   6,H  26)     -0.4600         0.026470   
    144. D(C   8,C   7,C   6,H  26)   -170.8137         0.026470   
    145. D(H  27,C   7,C   6,C   5)    169.9067         0.026470   
    146. D(C   8,C   7,C   6,C   5)     -0.4470         0.026470   
    147. D(H  40,C   8,C   7,C   6)    172.3655         0.022672   
    148. D(C   9,C   8,C   7,H  27)    171.3134         0.022672   
    149. D(C   9,C   8,C   7,C   6)    -18.5611         0.022672   
    150. D(H  40,C   8,C   7,H  27)      2.2400         0.022672   
    151. D(H  28,C   9,C   8,H  40)     -4.4497         0.023127   
    152. D(H  28,C   9,C   8,C   7)   -173.5222         0.023127   
    153. D(C  10,C   9,C   8,H  40)   -171.7290         0.023127   
    154. D(C  10,C   9,C   8,C   7)     19.1985         0.023127   
    155. D(H  29,C  10,C   9,H  28)     -1.1244         0.026988   
    156. D(C   5,C  10,C   9,H  28)   -168.4609         0.026988   
    157. D(C   5,C  10,C   9,C   8)     -0.8138         0.026988   
    158. D(H  29,C  10,C   5,C   6)    174.6618         0.023318   
    159. D(H  29,C  10,C   5,C   4)    -28.8813         0.023318   
    160. D(H  29,C  10,C   9,C   8)    166.5226         0.026988   
    161. D(C   9,C  10,C   5,C   6)    -18.2873         0.023318   
    162. D(C   9,C  10,C   5,C   4)    138.1696         0.023318   
    163. D(H  30,C  11,C   4,C   5)     33.2695         0.022714   
    164. D(H  30,C  11,C   4,C   3)   -171.2571         0.022714   
    165. D(C  12,C  11,C   4,C   5)   -137.3826         0.022714   
    166. D(C  12,C  11,C   4,C   3)     18.0909         0.022714   
    167. D(H  31,C  12,C  11,H  30)     -0.1408         0.026242   
    168. D(C   1,C  12,C  11,H  30)   -170.9743         0.026242   
    169. D(C   1,C  12,C  11,C   4)     -0.1641         0.026242   
    170. D(H  31,C  12,C   1,C   2)    171.4598         0.022860   
    171. D(H  31,C  12,C   1,C   0)    -33.8181         0.022860   
    172. D(H  31,C  12,C  11,C   4)    170.6694         0.026242   
    173. D(C  11,C  12,C   1,C   2)    -17.8430         0.022860   
    174. D(C  11,C  12,C   1,C   0)    136.8791         0.022860   
    175. D(H  32,C  13,C   0,C  23)   -175.9898         0.023456   
    176. D(H  32,C  13,C   0,C   1)     27.8338         0.023456   
    177. D(C  14,C  13,C   0,C  23)     17.9880         0.023456   
    178. D(C  14,C  13,C   0,C   1)   -138.1884         0.023456   
    179. D(H  33,C  14,C  13,C   0)    166.3835         0.026907   
    180. D(C  15,C  14,C  13,H  32)   -166.2672         0.026907   
    181. D(C  15,C  14,C  13,C   0)      0.0235         0.026907   
    182. D(H  33,C  14,C  13,H  32)      0.0927         0.026907   
    183. D(C  22,C  15,C  14,H  33)    175.8841         0.023421   
    184. D(C  22,C  15,C  14,C  13)    -18.0472         0.023421   
    185. D(C  16,C  15,C  14,H  33)    -27.6768         0.023421   
    186. D(C  16,C  15,C  14,C  13)    138.3919         0.023421   
    187. D(C  21,C  16,C  15,C  22)     22.0516         0.012419   
    188. D(C  21,C  16,C  15,C  14)   -132.6326         0.012419   
    189. D(C  17,C  16,C  15,C  22)    176.6242         0.012419   
    190. D(C  17,C  16,C  15,C  14)     21.9400         0.012419   
    191. D(H  34,C  17,C  16,C  21)   -171.1764         0.022855   
    192. D(H  34,C  17,C  16,C  15)     33.7527         0.022855   
    193. D(C  18,C  17,C  16,C  21)     18.3634         0.022855   
    194. D(C  18,C  17,C  16,C  15)   -136.7075         0.022855   
    195. D(H  35,C  18,C  17,H  34)     -0.0899         0.026358   
    196. D(H  35,C  18,C  17,C  16)    170.5301         0.026358   
    197. D(C  19,C  18,C  17,H  34)   -170.7254         0.026358   
    198. D(C  19,C  18,C  17,C  16)     -0.1055         0.026358   
    199. D(H  41,C  19,C  18,H  35)      1.8044         0.022646   
    200. D(H  41,C  19,C  18,C  17)    172.2383         0.022646   
    201. D(C  20,C  19,C  18,H  35)    171.1868         0.022646   
    202. D(C  20,C  19,C  18,C  17)    -18.3793         0.022646   
    203. D(H  36,C  20,C  19,H  41)     -5.1003         0.023210   
    204. D(H  36,C  20,C  19,C  18)   -174.4835         0.023210   
    205. D(C  21,C  20,C  19,H  41)   -171.9300         0.023210   
    206. D(C  21,C  20,C  19,C  18)     18.6867         0.023210   
    207. D(H  37,C  21,C  20,H  36)     -0.7559         0.027027   
    208. D(H  37,C  21,C  20,C  19)    166.4337         0.027027   
    209. D(C  16,C  21,C  20,H  36)   -167.6559         0.027027   
    210. D(C  16,C  21,C  20,C  19)     -0.4663         0.027027   
    211. D(H  37,C  21,C  16,C  17)    175.2610         0.023398   
    212. D(H  37,C  21,C  16,C  15)    -28.3804         0.023398   
    213. D(C  20,C  21,C  16,C  17)    -18.1172         0.023398   
    214. D(C  20,C  21,C  16,C  15)    138.2415         0.023398   
    215. D(H  38,C  22,C  15,C  16)     33.6169         0.022753   
    216. D(H  38,C  22,C  15,C  14)   -171.3037         0.022753   
    217. D(C  23,C  22,C  15,C  16)   -137.0317         0.022753   
    218. D(C  23,C  22,C  15,C  14)     18.0477         0.022753   
    219. D(H  39,C  23,C  22,H  38)     -0.1026         0.026234   
    220. D(H  39,C  23,C  22,C  15)    170.6928         0.026234   
    221. D(C   0,C  23,C  22,H  38)   -170.8834         0.026234   
    222. D(C   0,C  23,C  22,C  15)     -0.0879         0.026234   
    223. D(H  39,C  23,C   0,C  13)    171.4313         0.022835   
    224. D(H  39,C  23,C   0,C   1)    -33.8764         0.022835   
    225. D(C  22,C  23,C   0,C  13)    -17.9232         0.022835   
    226. D(C  22,C  23,C   0,C   1)    136.7691         0.022835   
    -----------------------------------------------------------------

Number of atoms                         .... 42
Number of degrees of freedom            .... 226

         *************************************************************
         *                GEOMETRY OPTIMIZATION CYCLE   1            *
         *************************************************************
---------------------------------
CARTESIAN COORDINATES (ANGSTROEM)
---------------------------------
  C     -3.452440    0.712200    0.112300
  C     -2.854410    2.067000   -0.087770
  C     -2.180790    2.294020   -1.303530
  C     -0.978290    2.991150   -1.337050
  C     -0.394940    3.491070   -0.156240
  C      1.085330    3.355000   -0.004690
  C      1.935590    3.128250   -1.108620
  C      2.967690    2.195930   -1.036350
  C      3.201690    1.456150    0.144260
  C      2.625670    1.998840    1.311420
  C      1.586750    2.919730    1.238160
  C     -1.263000    3.595630    0.953140
  C     -2.468100    2.896110    0.987490
  C     -3.146900    0.051140    1.317720
  C     -2.852670   -1.307900    1.334290
  C     -2.850710   -2.064690    0.146350
  C     -1.750560   -3.060350   -0.028940
  C     -1.025270   -3.587410    1.061510
  C      0.359930   -3.723820    0.999750
  C      1.078790   -3.341450   -0.154950
  C      0.306000   -3.214710   -1.327120
  C     -1.075390   -3.072660   -1.265180
  C     -3.530490   -1.484270   -0.947070
  C     -3.824850   -0.121940   -0.964160
  H     -2.470040    1.740800   -2.191530
  H     -0.396430    2.946550   -2.251890
  H      1.699310    3.559720   -2.077720
  H      3.484470    1.937480   -1.956170
  H      2.836720    1.561420    2.281440
  H      1.036660    3.132860    2.149380
  H     -0.933730    4.101650    1.857050
  H     -3.032730    2.880270    1.916480
  H     -2.915890    0.629970    2.206500
  H     -2.408990   -1.717030    2.236330
  H     -1.518110   -3.748470    2.016950
  H      0.889060   -3.984550    1.912210
  H      0.786250   -3.012770   -2.278630
  H     -1.591470   -2.756600   -2.166300
  H     -3.697240   -2.061540   -1.853050
  H     -4.208860    0.314830   -1.882820
  H      3.927006    0.633881    0.181459
  H      2.175554   -3.323817   -0.177385

----------------------------
CARTESIAN COORDINATES (A.U.)
----------------------------
  NO LB      ZA    FRAG     MASS         X           Y           Z
   0 C     6.0000    0    12.011   -6.524166    1.345863    0.212216
   1 C     6.0000    0    12.011   -5.394053    3.906064   -0.165861
   2 C     6.0000    0    12.011   -4.121096    4.335070   -2.463315
   3 C     6.0000    0    12.011   -1.848700    5.652454   -2.526658
   4 C     6.0000    0    12.011   -0.746328    6.597166   -0.295251
   5 C     6.0000    0    12.011    2.050976    6.340031   -0.008863
   6 C     6.0000    0    12.011    3.657735    5.911536   -2.094988
   7 C     6.0000    0    12.011    5.608121    4.149706   -1.958418
   8 C     6.0000    0    12.011    6.050317    2.751725    0.272612
   9 C     6.0000    0    12.011    4.961797    3.777260    2.478225
  10 C     6.0000    0    12.011    2.998523    5.517490    2.339783
  11 C     6.0000    0    12.011   -2.386724    6.794756    1.801174
  12 C     6.0000    0    12.011   -4.664033    5.472855    1.866086
  13 C     6.0000    0    12.011   -5.946779    0.096641    2.490130
  14 C     6.0000    0    12.011   -5.390765   -2.471573    2.521443
  15 C     6.0000    0    12.011   -5.387061   -3.901699    0.276561
  16 C     6.0000    0    12.011   -3.308079   -5.783223   -0.054689
  17 C     6.0000    0    12.011   -1.937480   -6.779222    2.005963
  18 C     6.0000    0    12.011    0.680169   -7.037000    1.889254
  19 C     6.0000    0    12.011    2.038618   -6.314425   -0.292813
  20 C     6.0000    0    12.011    0.578256   -6.074921   -2.507893
  21 C     6.0000    0    12.011   -2.032193   -5.806486   -2.390844
  22 C     6.0000    0    12.011   -6.671659   -2.804864   -1.789703
  23 C     6.0000    0    12.011   -7.227919   -0.230433   -1.821998
  24 H     1.0000    0     1.008   -4.667699    3.289635   -4.141392
  25 H     1.0000    0     1.008   -0.749144    5.568173   -4.255455
  26 H     1.0000    0     1.008    3.211231    6.726896   -3.926322
  27 H     1.0000    0     1.008    6.584694    3.661307   -3.696626
  28 H     1.0000    0     1.008    5.360624    2.950656    4.311297
  29 H     1.0000    0     1.008    1.959003    5.920247    4.061740
  30 H     1.0000    0     1.008   -1.764494    7.750995    3.509316
  31 H     1.0000    0     1.008   -5.731029    5.442921    3.621622
  32 H     1.0000    0     1.008   -5.510234    1.190471    4.169681
  33 H     1.0000    0     1.008   -4.552331   -3.244716    4.226051
  34 H     1.0000    0     1.008   -2.868812   -7.083582    3.811483
  35 H     1.0000    0     1.008    1.680080   -7.529708    3.613553
  36 H     1.0000    0     1.008    1.485797   -5.693310   -4.305987
  37 H     1.0000    0     1.008   -3.007442   -5.209219   -4.093714
  38 H     1.0000    0     1.008   -6.986771   -3.895746   -3.501757
  39 H     1.0000    0     1.008   -7.953593    0.594942   -3.558014
  40 H     1.0000    0     1.008    7.420966    1.197861    0.342908
  41 H     1.0000    0     1.008    4.111201   -6.281104   -0.335209

--------------------------------
INTERNAL COORDINATES (ANGSTROEM)
--------------------------------
 C      0   0   0     0.000000000000     0.00000000     0.00000000
 C      1   0   0     1.494373087887     0.00000000     0.00000000
 C      2   1   0     1.408323244997   116.94496459     0.00000000
 C      3   2   1     1.390366885861   121.01891143   221.70024825
 C      4   3   2     1.408733290939   121.05545133     0.07249460
 C      5   4   3     1.494216088891   117.57626787   138.63400384
 C      6   5   4     1.411743275174   122.13877833    19.08522926
 C      7   6   5     1.392721775984   120.88195950   223.47838203
 C      8   7   6     1.412752781098   121.10780469   359.55302890
 C      9   8   7     1.410168054559   114.99215638   341.43887717
 C     10   9   8     1.390237456732   121.10146959    19.19853473
 C      5   4   3     1.412510156282   115.47458631   341.92445393
 C     12   5   4     1.393834338399   120.90006211    18.09087082
 C      1   2   3     1.408329645928   116.95709806   129.49536763
 C     14   1   2     1.390624168998   120.98634117   221.81155938
 C     15  14   1     1.408522768471   121.01986464     0.02353366
 C     16  15  14     1.494120290405   117.25915859   138.39187999
 C     17  16  15     1.411707841658   122.44365650    21.93998615
 C     18  17  16     1.393269904110   120.87089659   223.29247592
 C     19  18  17     1.412904316116   121.03525948   359.89454711
 C     20  19  18     1.409698521174   115.14864785   341.62065206
 C     21  20  19     1.390055070204   121.12548647    18.68673622
 C     16  15  14     1.412287336628   115.56190921   341.95278085
 C     23  16  15     1.393873346685   120.85180166    18.04769644
 H      3   2   1     1.085477743162   119.77548923    27.83977084
 H      4   3   2     1.085118631856   117.61197089   166.63199232
 H      7   6   5     1.086806978861   120.16991484    33.66006576
 H      8   7   6     1.086244357085   117.89786599   169.90672567
 H     10   9   8     1.084812038696   120.36102012   186.47784034
 H     11  10   9     1.085516141474   117.67890333   166.52263520
 H     12   5   4     1.086981260832   120.09385070   188.74292359
 H     13  12   5     1.087235191943   118.51411844   170.66941343
 H     14   1   2     1.085513554683   119.78014562    27.83375051
 H     15  14   1     1.085318138105   117.69754836   166.38345461
 H     18  17  16     1.087058960130   120.08587577    33.75267165
 H     19  18  17     1.086527469234   118.06282786   170.53005623
 H     21  20  19     1.084800030513   120.22402909   185.51645100
 H     22  21  20     1.085472129721   117.72592139   166.43370812
 H     23  16  15     1.087127396306   120.05356758   188.69630624
 H     24  23  16     1.087275452036   118.52651487   170.69283044
 H      9   8   7     1.097084032250   122.02673538   172.36547156
 H     20  19  18     1.097135143731   121.98322364   172.23825405

---------------------------
INTERNAL COORDINATES (A.U.)
---------------------------
 C      0   0   0     0.000000000000     0.00000000     0.00000000
 C      1   0   0     2.823955878008     0.00000000     0.00000000
 C      2   1   0     2.661345241080   116.94496459     0.00000000
 C      3   2   1     2.627412639951   121.01891143   221.70024825
 C      4   3   2     2.662120115612   121.05545133     0.07249460
 C      5   4   3     2.823659192902   117.57626787   138.63400384
 C      6   5   4     2.667808161485   122.13877833    19.08522926
 C      7   6   5     2.631862737358   120.88195950   223.47838203
 C      8   7   6     2.669715851211   121.10780469   359.55302890
 C      9   8   7     2.664831425922   114.99215638   341.43887717
 C     10   9   8     2.627168054342   121.10146959    19.19853473
 C      5   4   3     2.669257356755   115.47458631   341.92445393
 C     12   5   4     2.633965175629   120.90006211    18.09087082
 C      1   2   3     2.661357337086   116.95709806   129.49536763
 C     14   1   2     2.627898834617   120.98634117   221.81155938
 C     15  14   1     2.661722285802   121.01986464     0.02353366
 C     16  15  14     2.823478160000   117.25915859   138.39187999
 C     17  16  15     2.667741201844   122.44365650    21.93998615
 C     18  17  16     2.632898549404   120.87089659   223.29247592
 C     19  18  17     2.670002210895   121.03525948   359.89454711
 C     20  19  18     2.663944136413   115.14864785   341.62065206
 C     21  20  19     2.626823393754   121.12548647    18.68673622
 C     16  15  14     2.668836288632   115.56190921   341.95278085
 C     23  16  15     2.634038890608   120.85180166    18.04769644
 H      3   2   1     2.051255659043   119.77548923    27.83977084
 H      4   3   2     2.050577037022   117.61197089   166.63199232
 H      7   6   5     2.053767550481   120.16991484    33.66006576
 H      8   7   6     2.052704349409   117.89786599   169.90672567
 H     10   9   8     2.049997659916   120.36102012   186.47784034
 H     11  10   9     2.051328221336   117.67890333   166.52263520
 H     12   5   4     2.054096895677   120.09385070   188.74292359
 H     13  12   5     2.054576755934   118.51411844   170.66941343
 H     14   1   2     2.051323333010   119.78014562    27.83375051
 H     15  14   1     2.050954049196   117.69754836   166.38345461
 H     18  17  16     2.054243726072   120.08587577    33.75267165
 H     19  18  17     2.053239353835   118.06282786   170.53005623
 H     21  20  19     2.049974967738   120.22402909   185.51645100
 H     22  21  20     2.051245051176   117.72592139   166.43370812
 H     23  16  15     2.054373051702   120.05356758   188.69630624
 H     24  23  16     2.054652836483   118.52651487   170.69283044
 H      9   8   7     2.073188366851   122.02673538   172.36547156
 H     20  19  18     2.073284953552   121.98322364   172.23825405

---------------------
BASIS SET INFORMATION
---------------------
There are 2 groups of distinct atoms

 Group   1 Type C   : 6s3p contracted to 2s1p pattern {33/3}
 Group   2 Type H   : 3s contracted to 1s pattern {3}

Atom   0C    basis set group =>   1
Atom   1C    basis set group =>   1
Atom   2C    basis set group =>   1
Atom   3C    basis set group =>   1
Atom   4C    basis set group =>   1
Atom   5C    basis set group =>   1
Atom   6C    basis set group =>   1
Atom   7C    basis set group =>   1
Atom   8C    basis set group =>   1
Atom   9C    basis set group =>   1
Atom  10C    basis set group =>   1
Atom  11C    basis set group =>   1
Atom  12C    basis set group =>   1
Atom  13C    basis set group =>   1
Atom  14C    basis set group =>   1
Atom  15C    basis set group =>   1
Atom  16C    basis set group =>   1
Atom  17C    basis set group =>   1
Atom  18C    basis set group =>   1
Atom  19C    basis set group =>   1
Atom  20C    basis set group =>   1
Atom  21C    basis set group =>   1
Atom  22C    basis set group =>   1
Atom  23C    basis set group =>   1
Atom  24H    basis set group =>   2
Atom  25H    basis set group =>   2
Atom  26H    basis set group =>   2
Atom  27H    basis set group =>   2
Atom  28H    basis set group =>   2
Atom  29H    basis set group =>   2
Atom  30H    basis set group =>   2
Atom  31H    basis set group =>   2
Atom  32H    basis set group =>   2
Atom  33H    basis set group =>   2
Atom  34H    basis set group =>   2
Atom  35H    basis set group =>   2
Atom  36H    basis set group =>   2
Atom  37H    basis set group =>   2
Atom  38H    basis set group =>   2
Atom  39H    basis set group =>   2
Atom  40H    basis set group =>   2
Atom  41H    basis set group =>   2


           ************************************************************
           *        Program running with 28 parallel MPI-processes    *
           *              working on a common directory               *
           ************************************************************
------------------------------------------------------------------------------
                           ORCA GTO INTEGRAL CALCULATION
------------------------------------------------------------------------------

                         BASIS SET STATISTICS AND STARTUP INFO

 # of primitive gaussian shells          ...  270
 # of primitive gaussian functions       ...  414
 # of contracted shells                  ...   90
 # of contracted basis functions         ...  138
 Highest angular momentum                ...    1
 Maximum contraction depth               ...    3
 Integral package used                   ... LIBINT
 Integral threshhold            Thresh   ...  2.500e-11
 Primitive cut-off              TCut     ...  2.500e-12


------------------------------ INTEGRAL EVALUATION ----------------------------


 * One electron integrals 
 Pre-screening matrix                    ... done
 Shell pair data                         ... done (   0.004 sec)



           ************************************************************
           *        Program running with 28 parallel MPI-processes    *
           *              working on a common directory               *
           ************************************************************
-------------------------------------------------------------------------------
                                 ORCA SCF
-------------------------------------------------------------------------------

------------
SCF SETTINGS
------------
Hamiltonian:
 Density Functional     Method          .... DFT(GTOs)
 Exchange Functional    Exchange        .... B88
   X-Alpha parameter    XAlpha          ....  0.666667
   Becke's b parameter  XBeta           ....  0.004200
 Correlation Functional Correlation     .... LYP
 LDA part of GGA corr.  LDAOpt          .... VWN-5
 Gradients option       PostSCFGGA      .... off
 Hybrid DFT is turned on
   Fraction HF Exchange ScalHFX         ....  0.200000
   Scaling of DF-GGA-X  ScalDFX         ....  0.720000
   Scaling of DF-GGA-C  ScalDFC         ....  0.810000
   Scaling of DF-LDA-C  ScalLDAC        ....  1.000000
   Perturbative correction              ....  0.000000
   Density functional embedding theory  .... OFF
   NL short-range parameter             ....  4.800000


General Settings:
 Integral files         IntName         .... dummy3
 Hartree-Fock type      HFTyp           .... RHF
 Total Charge           Charge          ....    0
 Multiplicity           Mult            ....    1
 Number of Electrons    NEL             ....  162
 Basis Dimension        Dim             ....  138
 Nuclear Repulsion      ENuc            ....   1797.3347984523 Eh

Convergence Acceleration:
 DIIS                   CNVDIIS         .... on
   Start iteration      DIISMaxIt       ....    12
   Startup error        DIISStart       ....  0.200000
   # of expansion vecs  DIISMaxEq       ....     5
   Bias factor          DIISBfac        ....   1.050
   Max. coefficient     DIISMaxC        ....  10.000
 Newton-Raphson         CNVNR           .... off
 SOSCF                  CNVSOSCF        .... on
   Start iteration      SOSCFMaxIt      ....   150
   Startup grad/error   SOSCFStart      ....  0.003300
 Level Shifting         CNVShift        .... on
   Level shift para.    LevelShift      ....    0.2500
   Turn off err/grad.   ShiftErr        ....    0.0010
 Zerner damping         CNVZerner       .... off
 Static damping         CNVDamp         .... on
   Fraction old density DampFac         ....    0.7000
   Max. Damping (<1)    DampMax         ....    0.9800
   Min. Damping (>=0)   DampMin         ....    0.0000
   Turn off err/grad.   DampErr         ....    0.1000
 Fernandez-Rico         CNVRico         .... off

SCF Procedure:
 Maximum # iterations   MaxIter         ....   125
 SCF integral mode      SCFMode         .... Direct
   Integral package                     .... LIBINT
 Reset frequency        DirectResetFreq ....    20
 Integral Threshold     Thresh          ....  2.500e-11 Eh
 Primitive CutOff       TCut            ....  2.500e-12 Eh

Convergence Tolerance:
 Convergence Check Mode ConvCheckMode   .... Total+1el-Energy
 Convergence forced     ConvForced      .... 0
 Energy Change          TolE            ....  1.000e-08 Eh
 1-El. energy change                    ....  1.000e-05 Eh
 Orbital Gradient       TolG            ....  1.000e-05
 Orbital Rotation angle TolX            ....  1.000e-05
 DIIS Error             TolErr          ....  5.000e-07


Diagonalization of the overlap matrix:
Smallest eigenvalue                        ... 1.722e-01
Time for diagonalization                   ...    0.008 sec
Threshold for overlap eigenvalues          ... 1.000e-08
Number of eigenvalues below threshold      ... 0
Time for construction of square roots      ...    0.008 sec
Total time needed                          ...    0.017 sec

-------------------
DFT GRID GENERATION
-------------------

General Integration Accuracy     IntAcc      ...  4.340
Radial Grid Type                 RadialGrid  ... Gauss-Chebyshev
Angular Grid (max. acc.)         AngularGrid ... Lebedev-110
Angular grid pruning method      GridPruning ... 3 (G Style)
Weight generation scheme         WeightScheme... Becke
Basis function cutoff            BFCut       ...    1.0000e-11
Integration weight cutoff        WCut        ...    1.0000e-14
Grids for H and He will be reduced by one unit

# of grid points (after initial pruning)     ...  54036 (   0.0 sec)
# of grid points (after weights+screening)   ...  47825 (   0.1 sec)
nearest neighbour list constructed           ...    0.0 sec
Grid point re-assignment to atoms done       ...    0.0 sec
Grid point division into batches done        ...    0.1 sec
Reduced shell lists constructed in    0.2 sec

Total number of grid points                  ...    47825
Total number of batches                      ...      767
Average number of points per batch           ...       62
Average number of grid points per atom       ...     1139
Average number of shells per batch           ...    53.48 (59.43%)
Average number of basis functions per batch  ...    91.28 (66.14%)
Average number of large shells per batch     ...    34.41 (64.35%)
Average number of large basis fcns per batch ...    59.86 (65.58%)
Maximum spatial batch extension              ...  16.33,  8.83,  7.56 au
Average spatial batch extension              ...   0.10,  0.09,  0.08 au

Time for grid setup =    0.286 sec

------------------------------
INITIAL GUESS: MODEL POTENTIAL
------------------------------
Loading Hartree-Fock densities                     ... done
Calculating cut-offs                               ... done
Setting up the integral package                    ... done
Initializing the effective Hamiltonian             ... done
Starting the Coulomb interaction                   ... done (   0.0 sec)
Reading the grid                                   ... done
Mapping shells                                     ... done
Starting the XC term evaluation                    ... done (   0.0 sec)
  promolecular density results
     # of electrons  =    161.982185579
     EX              =   -128.698105694
     EC              =     -5.423053879
     EX+EC           =   -134.121159573
Transforming the Hamiltonian                       ... done (   0.0 sec)
Diagonalizing the Hamiltonian                      ... done (   0.0 sec)
Back transforming the eigenvectors                 ... done (   0.0 sec)
Now organizing SCF variables                       ... done
                      ------------------
                      INITIAL GUESS DONE (   0.5 sec)
                      ------------------
--------------
SCF ITERATIONS
--------------
ITER       Energy         Delta-E        Max-DP      RMS-DP      [F,P]     Damp
               ***  Starting incremental Fock matrix formation  ***
  0   -913.2635222360   0.000000000000 0.04168021  0.00191005  0.0751943 0.7000
  1   -913.3029380209  -0.039415784866 0.03343092  0.00150407  0.0481462 0.7000
                               ***Turning on DIIS***
  2   -913.3244213739  -0.021483353037 0.06604212  0.00296273  0.0265017 0.0000
  3   -913.3576346483  -0.033213274398 0.02161334  0.00099392  0.0165394 0.0000
                      *** Initiating the SOSCF procedure ***
                           *** Shutting down DIIS ***
                      *** Re-Reading the Fockian *** 
                      *** Removing any level shift *** 
ITER      Energy       Delta-E        Grad      Rot      Max-DP    RMS-DP
  4   -913.36249531  -0.0048606665  0.001334  0.001334  0.004942  0.000231
               *** Restarting incremental Fock matrix formation ***
  5   -913.36272460  -0.0002292822  0.000406  0.002110  0.003082  0.000101
  6   -913.36272308   0.0000015196  0.000478  0.000807  0.002097  0.000054
  7   -913.36273556  -0.0000124809  0.000139  0.000336  0.000628  0.000027
  8   -913.36273536   0.0000001936  0.000138  0.000211  0.000564  0.000015
  9   -913.36273630  -0.0000009341  0.000035  0.000169  0.000230  0.000008
 10   -913.36273629   0.0000000082  0.000042  0.000103  0.000129  0.000005
 11   -913.36273637  -0.0000000782  0.000007  0.000026  0.000052  0.000002
 12   -913.36273637   0.0000000007  0.000007  0.000010  0.000026  0.000001
                  ***Gradient check signals convergence***
              ***Rediagonalizing the Fockian in SOSCF/NRSCF***

               *****************************************************
               *                     SUCCESS                       *
               *           SCF CONVERGED AFTER  13 CYCLES          *
               *****************************************************

Setting up the final grid:

General Integration Accuracy     IntAcc      ...  4.670
Radial Grid Type                 RadialGrid  ... Gauss-Chebyshev
Angular Grid (max. acc.)         AngularGrid ... Lebedev-302
Angular grid pruning method      GridPruning ... 3 (G Style)
Weight generation scheme         WeightScheme... Becke
Basis function cutoff            BFCut       ...    1.0000e-11
Integration weight cutoff        WCut        ...    1.0000e-14
Grids for H and He will be reduced by one unit

# of grid points (after initial pruning)     ... 210180 (   0.0 sec)
# of grid points (after weights+screening)   ... 181679 (   0.2 sec)
nearest neighbour list constructed           ...    0.0 sec
Grid point re-assignment to atoms done       ...    0.0 sec
Grid point division into batches done        ...    0.6 sec
Reduced shell lists constructed in    0.7 sec

Total number of grid points                  ...   181679
Total number of batches                      ...     2862
Average number of points per batch           ...       63
Average number of grid points per atom       ...     4326
Average number of shells per batch           ...    50.65 (56.28%)
Average number of basis functions per batch  ...    86.48 (62.67%)
Average number of large shells per batch     ...    32.27 (63.71%)
Average number of large basis fcns per batch ...    56.62 (65.47%)
Maximum spatial batch extension              ...  13.48,  5.43,  6.14 au
Average spatial batch extension              ...   0.06,  0.05,  0.05 au

Final grid set up in    0.8 sec
Final integration                            ... done (   0.1 sec)
Change in XC energy                          ...    -0.001374643
Integrated number of electrons               ...   161.999945927
Previous integrated no of electrons          ...   161.990423345

----------------
TOTAL SCF ENERGY
----------------

Total Energy       :         -913.36411102 Eh          -24853.90101 eV

Components:
Nuclear Repulsion  :         1797.33479845 Eh           48907.96630 eV
Electronic Energy  :        -2710.69890947 Eh          -73761.86731 eV
One Electron Energy:        -4811.60658125 Eh         -130930.47145 eV
Two Electron Energy:         2100.90767178 Eh           57168.60414 eV

Virial components:
Potential Energy   :        -1812.30067960 Eh          -49315.20863 eV
Kinetic Energy     :          898.93656858 Eh           24461.30762 eV
Virial Ratio       :            2.01604957


DFT components:
N(Alpha)           :       80.999972963525 electrons
N(Beta)            :       80.999972963525 electrons
N(Total)           :      161.999945927050 electrons
E(X)               :     -103.642592442024 Eh       
E(C)               :       -6.391826628138 Eh       
E(XC)              :     -110.034419070162 Eh       
DFET-embed. en.    :        0.000000000000 Eh       

---------------
SCF CONVERGENCE
---------------

  Last Energy change         ...   -5.2869e-09  Tolerance :   1.0000e-08
  Last MAX-Density change    ...    4.0577e-06  Tolerance :   1.0000e-07
  Last RMS-Density change    ...    1.2498e-07  Tolerance :   5.0000e-09
  Last Orbital Gradient      ...    3.9360e-07  Tolerance :   1.0000e-05
  Last Orbital Rotation      ...    1.8881e-06  Tolerance :   1.0000e-05

             **** THE GBW FILE WAS UPDATED (dummy3.gbw) ****
             **** DENSITY FILE WAS UPDATED (dummy3.scfp) ****
             **** ENERGY FILE WAS UPDATED (dummy3.en.tmp) ****
             **** THE GBW FILE WAS UPDATED (dummy3.gbw) ****
             **** DENSITY FILE WAS UPDATED (dummy3.scfp) ****
----------------
ORBITAL ENERGIES
----------------

  NO   OCC          E(Eh)            E(eV) 
   0   2.0000     -10.018320      -272.6123 
   1   2.0000     -10.018228      -272.6099 
   2   2.0000     -10.017424      -272.5880 
   3   2.0000     -10.016997      -272.5764 
   4   2.0000     -10.016842      -272.5721 
   5   2.0000     -10.016454      -272.5616 
   6   2.0000     -10.002015      -272.1687 
   7   2.0000     -10.001980      -272.1677 
   8   2.0000     -10.001858      -272.1644 
   9   2.0000     -10.001853      -272.1643 
  10   2.0000     -10.001693      -272.1599 
  11   2.0000     -10.001639      -272.1584 
  12   2.0000     -10.001313      -272.1496 
  13   2.0000     -10.001292      -272.1490 
  14   2.0000     -10.001205      -272.1466 
  15   2.0000     -10.001176      -272.1458 
  16   2.0000     -10.001148      -272.1451 
  17   2.0000     -10.001111      -272.1441 
  18   2.0000     -10.000500      -272.1274 
  19   2.0000     -10.000460      -272.1264 
  20   2.0000      -9.999204      -272.0922 
  21   2.0000      -9.999065      -272.0884 
  22   2.0000      -9.998673      -272.0777 
  23   2.0000      -9.998654      -272.0772 
  24   2.0000      -0.828747       -22.5513 
  25   2.0000      -0.818948       -22.2847 
  26   2.0000      -0.804748       -21.8983 
  27   2.0000      -0.791522       -21.5384 
  28   2.0000      -0.743039       -20.2191 
  29   2.0000      -0.715732       -19.4761 
  30   2.0000      -0.707847       -19.2615 
  31   2.0000      -0.702530       -19.1168 
  32   2.0000      -0.695947       -18.9377 
  33   2.0000      -0.691934       -18.8285 
  34   2.0000      -0.684146       -18.6166 
  35   2.0000      -0.654181       -17.8012 
  36   2.0000      -0.589309       -16.0359 
  37   2.0000      -0.580629       -15.7997 
  38   2.0000      -0.564855       -15.3705 
  39   2.0000      -0.563387       -15.3305 
  40   2.0000      -0.544898       -14.8274 
  41   2.0000      -0.539731       -14.6868 
  42   2.0000      -0.529959       -14.4209 
  43   2.0000      -0.525193       -14.2912 
  44   2.0000      -0.491579       -13.3765 
  45   2.0000      -0.480191       -13.0667 
  46   2.0000      -0.459351       -12.4996 
  47   2.0000      -0.439296       -11.9539 
  48   2.0000      -0.438084       -11.9209 
  49   2.0000      -0.419319       -11.4102 
  50   2.0000      -0.404643       -11.0109 
  51   2.0000      -0.402655       -10.9568 
  52   2.0000      -0.399013       -10.8577 
  53   2.0000      -0.391735       -10.6597 
  54   2.0000      -0.381636       -10.3849 
  55   2.0000      -0.379605       -10.3296 
  56   2.0000      -0.375878       -10.2282 
  57   2.0000      -0.373035       -10.1508 
  58   2.0000      -0.369922       -10.0661 
  59   2.0000      -0.368565       -10.0292 
  60   2.0000      -0.365427        -9.9438 
  61   2.0000      -0.350885        -9.5481 
  62   2.0000      -0.340546        -9.2667 
  63   2.0000      -0.331793        -9.0285 
  64   2.0000      -0.327310        -8.9066 
  65   2.0000      -0.309205        -8.4139 
  66   2.0000      -0.295310        -8.0358 
  67   2.0000      -0.291643        -7.9360 
  68   2.0000      -0.286951        -7.8083 
  69   2.0000      -0.280837        -7.6420 
  70   2.0000      -0.277746        -7.5579 
  71   2.0000      -0.273655        -7.4465 
  72   2.0000      -0.272167        -7.4060 
  73   2.0000      -0.230281        -6.2663 
  74   2.0000      -0.199650        -5.4328 
  75   2.0000      -0.196092        -5.3359 
  76   2.0000      -0.192964        -5.2508 
  77   2.0000      -0.188216        -5.1216 
  78   2.0000      -0.186724        -5.0810 
  79   2.0000      -0.159240        -4.3331 
  80   2.0000      -0.125684        -3.4200 
  81   0.0000       0.029366         0.7991 
  82   0.0000       0.061627         1.6770 
  83   0.0000       0.083633         2.2758 
  84   0.0000       0.089388         2.4324 
  85   0.0000       0.100042         2.7223 
  86   0.0000       0.100194         2.7264 
  87   0.0000       0.106966         2.9107 
  88   0.0000       0.123580         3.3628 
  89   0.0000       0.204997         5.5783 
  90   0.0000       0.208354         5.6696 
  91   0.0000       0.226002         6.1498 
  92   0.0000       0.226343         6.1591 
  93   0.0000       0.359942         9.7945 
  94   0.0000       0.360750         9.8165 
  95   0.0000       0.362727         9.8703 
  96   0.0000       0.379633        10.3303 
  97   0.0000       0.387903        10.5554 
  98   0.0000       0.391168        10.6442 
  99   0.0000       0.413048        11.2396 
 100   0.0000       0.424867        11.5612 
 101   0.0000       0.425872        11.5886 
 102   0.0000       0.433181        11.7874 
 103   0.0000       0.434602        11.8261 
 104   0.0000       0.436584        11.8800 
 105   0.0000       0.447640        12.1809 
 106   0.0000       0.455913        12.4060 
 107   0.0000       0.463752        12.6193 
 108   0.0000       0.463971        12.6253 
 109   0.0000       0.470335        12.7985 
 110   0.0000       0.487783        13.2732 
 111   0.0000       0.489764        13.3272 
 112   0.0000       0.496964        13.5231 
 113   0.0000       0.512408        13.9433 
 114   0.0000       0.528552        14.3826 
 115   0.0000       0.540504        14.7079 
 116   0.0000       0.555256        15.1093 
 117   0.0000       0.567389        15.4394 
 118   0.0000       0.570287        15.5183 
 119   0.0000       0.584226        15.8976 
 120   0.0000       0.589373        16.0377 
 121   0.0000       0.597164        16.2497 
 122   0.0000       0.606276        16.4976 
 123   0.0000       0.613030        16.6814 
 124   0.0000       0.618347        16.8261 
 125   0.0000       0.618559        16.8318 
 126   0.0000       0.620980        16.8977 
 127   0.0000       0.630031        17.1440 
 128   0.0000       0.638557        17.3760 
 129   0.0000       0.644714        17.5436 
 130   0.0000       0.718979        19.5644 
 131   0.0000       0.743784        20.2394 
 132   0.0000       0.769191        20.9307 
 133   0.0000       0.773104        21.0372 
 134   0.0000       0.792124        21.5548 
 135   0.0000       0.793674        21.5970 
 136   0.0000       0.813030        22.1237 
 137   0.0000       0.824888        22.4463 

                    ********************************
                    * MULLIKEN POPULATION ANALYSIS *
                    ********************************

-----------------------
MULLIKEN ATOMIC CHARGES
-----------------------
   0 C :   -0.003780
   1 C :   -0.003868
   2 C :   -0.077374
   3 C :   -0.077194
   4 C :   -0.004307
   5 C :   -0.002221
   6 C :   -0.081508
   7 C :   -0.080230
   8 C :   -0.079160
   9 C :   -0.080719
  10 C :   -0.078456
  11 C :   -0.079958
  12 C :   -0.081263
  13 C :   -0.077353
  14 C :   -0.077282
  15 C :   -0.004219
  16 C :   -0.002121
  17 C :   -0.082018
  18 C :   -0.080111
  19 C :   -0.079057
  20 C :   -0.080933
  21 C :   -0.078196
  22 C :   -0.080251
  23 C :   -0.081312
  24 H :    0.082472
  25 H :    0.082599
  26 H :    0.078740
  27 H :    0.079459
  28 H :    0.079785
  29 H :    0.080214
  30 H :    0.080655
  31 H :    0.080638
  32 H :    0.082588
  33 H :    0.082971
  34 H :    0.078846
  35 H :    0.079453
  36 H :    0.079845
  37 H :    0.080583
  38 H :    0.080659
  39 H :    0.080584
  40 H :    0.081448
  41 H :    0.081352
Sum of atomic charges:   -0.0000000

--------------------------------
MULLIKEN REDUCED ORBITAL CHARGES
--------------------------------
  0 C s       :     3.133198  s :     3.133198
      pz      :     0.953443  p :     2.870582
      px      :     0.986300
      py      :     0.930839
  1 C s       :     3.133248  s :     3.133248
      pz      :     0.953255  p :     2.870620
      px      :     0.979794
      py      :     0.937571
  2 C s       :     3.142609  s :     3.142609
      pz      :     0.975730  p :     2.934765
      px      :     0.967119
      py      :     0.991916
  3 C s       :     3.142125  s :     3.142125
      pz      :     0.977482  p :     2.935069
      px      :     0.969946
      py      :     0.987641
  4 C s       :     3.132790  s :     3.132790
      pz      :     0.953818  p :     2.871517
      px      :     0.920782
      py      :     0.996917
  5 C s       :     3.134720  s :     3.134720
      pz      :     0.954823  p :     2.867502
      px      :     0.924176
      py      :     0.988503
  6 C s       :     3.140276  s :     3.140276
      pz      :     0.973127  p :     2.941231
      px      :     0.977092
      py      :     0.991012
  7 C s       :     3.143923  s :     3.143923
      pz      :     0.979788  p :     2.936308
      px      :     0.988209
      py      :     0.968311
  8 C s       :     3.151737  s :     3.151737
      pz      :     0.950146  p :     2.927423
      px      :     0.997405
      py      :     0.979872
  9 C s       :     3.142649  s :     3.142649
      pz      :     0.979062  p :     2.938070
      px      :     0.985404
      py      :     0.973604
 10 C s       :     3.140888  s :     3.140888
      pz      :     0.972020  p :     2.937567
      px      :     0.979500
      py      :     0.986048
 11 C s       :     3.142040  s :     3.142040
      pz      :     0.973601  p :     2.937919
      px      :     0.963859
      py      :     1.000459
 12 C s       :     3.141689  s :     3.141689
      pz      :     0.974494  p :     2.939574
      px      :     0.974393
      py      :     0.990686
 13 C s       :     3.142724  s :     3.142724
      pz      :     0.976461  p :     2.934629
      px      :     0.997395
      py      :     0.960774
 14 C s       :     3.142616  s :     3.142616
      pz      :     0.977178  p :     2.934666
      px      :     1.000035
      py      :     0.957453
 15 C s       :     3.132901  s :     3.132901
      pz      :     0.953798  p :     2.871318
      px      :     0.959474
      py      :     0.958046
 16 C s       :     3.134687  s :     3.134687
      pz      :     0.954786  p :     2.867434
      px      :     0.949058
      py      :     0.963590
 17 C s       :     3.140371  s :     3.140371
      pz      :     0.973016  p :     2.941646
      px      :     0.957393
      py      :     1.011237
 18 C s       :     3.144129  s :     3.144129
      pz      :     0.981120  p :     2.935982
      px      :     0.958674
      py      :     0.996189
 19 C s       :     3.151432  s :     3.151432
      pz      :     0.950896  p :     2.927624
      px      :     0.978890
      py      :     0.997839
 20 C s       :     3.142505  s :     3.142505
      pz      :     0.978878  p :     2.938428
      px      :     0.957949
      py      :     1.001601
 21 C s       :     3.141165  s :     3.141165
      pz      :     0.972935  p :     2.937031
      px      :     0.962154
      py      :     1.001942
 22 C s       :     3.141998  s :     3.141998
      pz      :     0.973867  p :     2.938253
      px      :     1.003021
      py      :     0.961364
 23 C s       :     3.141867  s :     3.141867
      pz      :     0.974281  p :     2.939445
      px      :     1.010474
      py      :     0.954691
 24 H s       :     0.917528  s :     0.917528
 25 H s       :     0.917401  s :     0.917401
 26 H s       :     0.921260  s :     0.921260
 27 H s       :     0.920541  s :     0.920541
 28 H s       :     0.920215  s :     0.920215
 29 H s       :     0.919786  s :     0.919786
 30 H s       :     0.919345  s :     0.919345
 31 H s       :     0.919362  s :     0.919362
 32 H s       :     0.917412  s :     0.917412
 33 H s       :     0.917029  s :     0.917029
 34 H s       :     0.921154  s :     0.921154
 35 H s       :     0.920547  s :     0.920547
 36 H s       :     0.920155  s :     0.920155
 37 H s       :     0.919417  s :     0.919417
 38 H s       :     0.919341  s :     0.919341
 39 H s       :     0.919416  s :     0.919416
 40 H s       :     0.918552  s :     0.918552
 41 H s       :     0.918648  s :     0.918648


                     *******************************
                     * LOEWDIN POPULATION ANALYSIS *
                     *******************************

----------------------
LOEWDIN ATOMIC CHARGES
----------------------
   0 C :    0.003194
   1 C :    0.003192
   2 C :   -0.044287
   3 C :   -0.044354
   4 C :    0.002492
   5 C :    0.006735
   6 C :   -0.049793
   7 C :   -0.043026
   8 C :   -0.044143
   9 C :   -0.043636
  10 C :   -0.046370
  11 C :   -0.047020
  12 C :   -0.048500
  13 C :   -0.044236
  14 C :   -0.044276
  15 C :    0.002601
  16 C :    0.006832
  17 C :   -0.050230
  18 C :   -0.042877
  19 C :   -0.044112
  20 C :   -0.043843
  21 C :   -0.045972
  22 C :   -0.047326
  23 C :   -0.048496
  24 H :    0.045792
  25 H :    0.046035
  26 H :    0.042861
  27 H :    0.042678
  28 H :    0.042834
  29 H :    0.043984
  30 H :    0.044482
  31 H :    0.044384
  32 H :    0.045887
  33 H :    0.046253
  34 H :    0.042893
  35 H :    0.042687
  36 H :    0.042900
  37 H :    0.044221
  38 H :    0.044454
  39 H :    0.044354
  40 H :    0.045418
  41 H :    0.045333

-------------------------------
LOEWDIN REDUCED ORBITAL CHARGES
-------------------------------
  0 C s       :     3.027289  s :     3.027289
      pz      :     1.001983  p :     2.969517
      px      :     0.991787
      py      :     0.975747
  1 C s       :     3.027308  s :     3.027308
      pz      :     1.002190  p :     2.969501
      px      :     0.998217
      py      :     0.969094
  2 C s       :     3.022743  s :     3.022743
      pz      :     1.010898  p :     3.021544
      px      :     1.002460
      py      :     1.008187
  3 C s       :     3.022360  s :     3.022360
      pz      :     1.011570  p :     3.021995
      px      :     1.009833
      py      :     1.000592
  4 C s       :     3.027123  s :     3.027123
      pz      :     1.002323  p :     2.970385
      px      :     0.966736
      py      :     1.001326
  5 C s       :     3.028271  s :     3.028271
      pz      :     1.005232  p :     2.964994
      px      :     0.965969
      py      :     0.993793
  6 C s       :     3.020929  s :     3.020929
      pz      :     1.006462  p :     3.028864
      px      :     1.013733
      py      :     1.008668
  7 C s       :     3.022089  s :     3.022089
      pz      :     1.012196  p :     3.020937
      px      :     1.010924
      py      :     0.997817
  8 C s       :     3.030027  s :     3.030027
      pz      :     1.004302  p :     3.014116
      px      :     1.009842
      py      :     0.999972
  9 C s       :     3.020589  s :     3.020589
      pz      :     1.012768  p :     3.023047
      px      :     1.010411
      py      :     0.999868
 10 C s       :     3.021501  s :     3.021501
      pz      :     1.009445  p :     3.024870
      px      :     1.010941
      py      :     1.004484
 11 C s       :     3.022232  s :     3.022232
      pz      :     1.005500  p :     3.024788
      px      :     1.008330
      py      :     1.010958
 12 C s       :     3.021873  s :     3.021873
      pz      :     1.005732  p :     3.026627
      px      :     1.006401
      py      :     1.014493
 13 C s       :     3.022845  s :     3.022845
      pz      :     1.011123  p :     3.021391
      px      :     1.001613
      py      :     1.008655
 14 C s       :     3.022740  s :     3.022740
      pz      :     1.011281  p :     3.021536
      px      :     1.005844
      py      :     1.004411
 15 C s       :     3.027160  s :     3.027160
      pz      :     1.002070  p :     2.970239
      px      :     0.977886
      py      :     0.990283
 16 C s       :     3.028215  s :     3.028215
      pz      :     1.004484  p :     2.964954
      px      :     0.984452
      py      :     0.976018
 17 C s       :     3.020990  s :     3.020990
      pz      :     1.005612  p :     3.029240
      px      :     1.006001
      py      :     1.017627
 18 C s       :     3.022303  s :     3.022303
      pz      :     1.012303  p :     3.020574
      px      :     1.008183
      py      :     1.000088
 19 C s       :     3.029810  s :     3.029810
      pz      :     1.004009  p :     3.014302
      px      :     1.008980
      py      :     1.001313
 20 C s       :     3.020424  s :     3.020424
      pz      :     1.012581  p :     3.023419
      px      :     1.008722
      py      :     1.002117
 21 C s       :     3.021682  s :     3.021682
      pz      :     1.009759  p :     3.024290
      px      :     1.009596
      py      :     1.004935
 22 C s       :     3.022164  s :     3.022164
      pz      :     1.005247  p :     3.025162
      px      :     1.014416
      py      :     1.005499
 23 C s       :     3.022015  s :     3.022015
      pz      :     1.005361  p :     3.026481
      px      :     1.015449
      py      :     1.005671
 24 H s       :     0.954208  s :     0.954208
 25 H s       :     0.953965  s :     0.953965
 26 H s       :     0.957139  s :     0.957139
 27 H s       :     0.957322  s :     0.957322
 28 H s       :     0.957166  s :     0.957166
 29 H s       :     0.956016  s :     0.956016
 30 H s       :     0.955518  s :     0.955518
 31 H s       :     0.955616  s :     0.955616
 32 H s       :     0.954113  s :     0.954113
 33 H s       :     0.953747  s :     0.953747
 34 H s       :     0.957107  s :     0.957107
 35 H s       :     0.957313  s :     0.957313
 36 H s       :     0.957100  s :     0.957100
 37 H s       :     0.955779  s :     0.955779
 38 H s       :     0.955546  s :     0.955546
 39 H s       :     0.955646  s :     0.955646
 40 H s       :     0.954582  s :     0.954582
 41 H s       :     0.954667  s :     0.954667


                      *****************************
                      * MAYER POPULATION ANALYSIS *
                      *****************************

  NA   - Mulliken gross atomic population
  ZA   - Total nuclear charge
  QA   - Mulliken gross atomic charge
  VA   - Mayer's total valence
  BVA  - Mayer's bonded valence
  FA   - Mayer's free valence

  ATOM       NA         ZA         QA         VA         BVA        FA
  0 C      6.0038     6.0000    -0.0038     3.9721     3.9721    -0.0000
  1 C      6.0039     6.0000    -0.0039     3.9721     3.9721     0.0000
  2 C      6.0774     6.0000    -0.0774     3.9715     3.9715     0.0000
  3 C      6.0772     6.0000    -0.0772     3.9717     3.9717     0.0000
  4 C      6.0043     6.0000    -0.0043     3.9723     3.9723    -0.0000
  5 C      6.0022     6.0000    -0.0022     3.9722     3.9722    -0.0000
  6 C      6.0815     6.0000    -0.0815     3.9724     3.9724     0.0000
  7 C      6.0802     6.0000    -0.0802     3.9719     3.9719     0.0000
  8 C      6.0792     6.0000    -0.0792     3.9678     3.9678    -0.0000
  9 C      6.0807     6.0000    -0.0807     3.9720     3.9720    -0.0000
 10 C      6.0785     6.0000    -0.0785     3.9722     3.9722     0.0000
 11 C      6.0800     6.0000    -0.0800     3.9721     3.9721     0.0000
 12 C      6.0813     6.0000    -0.0813     3.9720     3.9720     0.0000
 13 C      6.0774     6.0000    -0.0774     3.9715     3.9715    -0.0000
 14 C      6.0773     6.0000    -0.0773     3.9714     3.9714     0.0000
 15 C      6.0042     6.0000    -0.0042     3.9722     3.9722    -0.0000
 16 C      6.0021     6.0000    -0.0021     3.9722     3.9722    -0.0000
 17 C      6.0820     6.0000    -0.0820     3.9724     3.9724    -0.0000
 18 C      6.0801     6.0000    -0.0801     3.9719     3.9719     0.0000
 19 C      6.0791     6.0000    -0.0791     3.9679     3.9679     0.0000
 20 C      6.0809     6.0000    -0.0809     3.9720     3.9720    -0.0000
 21 C      6.0782     6.0000    -0.0782     3.9721     3.9721    -0.0000
 22 C      6.0803     6.0000    -0.0803     3.9720     3.9720     0.0000
 23 C      6.0813     6.0000    -0.0813     3.9719     3.9719    -0.0000
 24 H      0.9175     1.0000     0.0825     0.9932     0.9932     0.0000
 25 H      0.9174     1.0000     0.0826     0.9932     0.9932    -0.0000
 26 H      0.9213     1.0000     0.0787     0.9938     0.9938    -0.0000
 27 H      0.9205     1.0000     0.0795     0.9937     0.9937     0.0000
 28 H      0.9202     1.0000     0.0798     0.9936     0.9936    -0.0000
 29 H      0.9198     1.0000     0.0802     0.9936     0.9936     0.0000
 30 H      0.9193     1.0000     0.0807     0.9935     0.9935     0.0000
 31 H      0.9194     1.0000     0.0806     0.9935     0.9935     0.0000
 32 H      0.9174     1.0000     0.0826     0.9932     0.9932    -0.0000
 33 H      0.9170     1.0000     0.0830     0.9931     0.9931     0.0000
 34 H      0.9212     1.0000     0.0788     0.9938     0.9938     0.0000
 35 H      0.9205     1.0000     0.0795     0.9937     0.9937     0.0000
 36 H      0.9202     1.0000     0.0798     0.9936     0.9936     0.0000
 37 H      0.9194     1.0000     0.0806     0.9935     0.9935     0.0000
 38 H      0.9193     1.0000     0.0807     0.9935     0.9935    -0.0000
 39 H      0.9194     1.0000     0.0806     0.9935     0.9935    -0.0000
 40 H      0.9186     1.0000     0.0814     0.9934     0.9934    -0.0000
 41 H      0.9186     1.0000     0.0814     0.9934     0.9934     0.0000

  Mayer bond orders larger than 0.100000
B(  0-C ,  1-C ) :   1.0565 B(  0-C , 13-C ) :   1.3602 B(  0-C , 15-C ) :   0.1082 
B(  0-C , 23-C ) :   1.3450 B(  1-C ,  2-C ) :   1.3595 B(  1-C ,  4-C ) :   0.1079 
B(  1-C , 12-C ) :   1.3453 B(  2-C ,  3-C ) :   1.4711 B(  2-C , 24-H ) :   0.9576 
B(  3-C ,  4-C ) :   1.3599 B(  3-C , 25-H ) :   0.9572 B(  4-C ,  5-C ) :   1.0580 
B(  4-C , 11-C ) :   1.3457 B(  5-C ,  6-C ) :   1.3589 B(  5-C ,  8-C ) :   0.1159 
B(  5-C , 10-C ) :   1.3687 B(  6-C ,  7-C ) :   1.4661 B(  6-C ,  9-C ) :   0.1031 
B(  6-C , 26-H ) :   0.9596 B(  7-C ,  8-C ) :   1.4070 B(  7-C , 10-C ) :   0.1020 
B(  7-C , 27-H ) :   0.9628 B(  8-C ,  9-C ) :   1.4165 B(  8-C , 40-H ) :   0.9634 
B(  9-C , 10-C ) :   1.4550 B(  9-C , 28-H ) :   0.9627 B( 10-C , 29-H ) :   0.9584 
B( 11-C , 12-C ) :   1.4900 B( 11-C , 30-H ) :   0.9590 B( 12-C , 31-H ) :   0.9593 
B( 13-C , 14-C ) :   1.4698 B( 13-C , 32-H ) :   0.9576 B( 14-C , 15-C ) :   1.3609 
B( 14-C , 33-H ) :   0.9573 B( 15-C , 16-C ) :   1.0560 B( 15-C , 22-C ) :   1.3460 
B( 16-C , 17-C ) :   1.3597 B( 16-C , 19-C ) :   0.1159 B( 16-C , 21-C ) :   1.3699 
B( 17-C , 18-C ) :   1.4658 B( 17-C , 20-C ) :   0.1033 B( 17-C , 34-H ) :   0.9599 
B( 18-C , 19-C ) :   1.4069 B( 18-C , 21-C ) :   0.1024 B( 18-C , 35-H ) :   0.9629 
B( 19-C , 20-C ) :   1.4176 B( 19-C , 41-H ) :   0.9635 B( 20-C , 21-C ) :   1.4536 
B( 20-C , 36-H ) :   0.9627 B( 21-C , 37-H ) :   0.9584 B( 22-C , 23-C ) :   1.4901 
B( 22-C , 38-H ) :   0.9592 B( 23-C , 39-H ) :   0.9593 

-------
TIMINGS
-------

Total SCF time: 0 days 0 hours 0 min 6 sec 

Total time                  ....       6.303 sec
Sum of individual times     ....       5.912 sec  ( 93.8%)

Fock matrix formation       ....       4.457 sec  ( 70.7%)
  XC integration            ....       0.452 sec  ( 10.1% of F)
    Basis function eval.    ....       0.158 sec  ( 35.0% of XC)
    Density eval.           ....       0.037 sec  (  8.2% of XC)
    XC-Functional eval.     ....       0.020 sec  (  4.3% of XC)
    XC-Potential eval.      ....       0.032 sec  (  7.0% of XC)
Diagonalization             ....       0.018 sec  (  0.3%)
Density matrix formation    ....       0.006 sec  (  0.1%)
Population analysis         ....       0.011 sec  (  0.2%)
Initial guess               ....       0.255 sec  (  4.0%)
Orbital Transformation      ....       0.000 sec  (  0.0%)
Orbital Orthonormalization  ....       0.000 sec  (  0.0%)
DIIS solution               ....       0.010 sec  (  0.2%)
SOSCF solution              ....       0.021 sec  (  0.3%)
Grid generation             ....       1.133 sec  ( 18.0%)

-------------------------   --------------------
FINAL SINGLE POINT ENERGY      -913.364111016205
-------------------------   --------------------



           ************************************************************
           *        Program running with 28 parallel MPI-processes    *
           *              working on a common directory               *
           ************************************************************
------------------------------------------------------------------------------
                         ORCA SCF GRADIENT CALCULATION
------------------------------------------------------------------------------

Gradient of the Kohn-Sham DFT energy:
Kohn-Sham wavefunction type      ... RKS
Hartree-Fock exchange scaling    ...    0.200
Number of operators              ...    1
Number of atoms                  ...   42
Basis set dimensions             ...  138
Integral neglect threshold       ... 2.5e-11
Integral primitive cutoff        ... 2.5e-12

Nuclear repulsion gradient       ... done
One Electron Gradient            ... done
Pre-screening matrix             ... done
Starting the two electron gradient:
Two electron gradient done
Exchange-correlation gradient    ... done

------------------
CARTESIAN GRADIENT
------------------

   1   C   :    0.007274047   -0.003650142   -0.000601821
   2   C   :    0.007510837   -0.002887466    0.000367251
   3   C   :   -0.000106905   -0.000285324    0.007806359
   4   C   :    0.000358029    0.000332373    0.007311510
   5   C   :    0.000598379   -0.009931109    0.000836048
   6   C   :   -0.004699420   -0.005669297   -0.000113084
   7   C   :    0.003337366   -0.000123820    0.008304140
   8   C   :   -0.002561957    0.014753262    0.000952290
   9   C   :   -0.011864146   -0.025749701   -0.002998689
  10   C   :   -0.003700391    0.018954818    0.000763748
  11   C   :    0.006348451    0.001376642   -0.006527492
  12   C   :    0.003541443   -0.002833943   -0.006483599
  13   C   :    0.000466483   -0.004403735   -0.006840567
  14   C   :   -0.000012983    0.000292893   -0.007718061
  15   C   :   -0.000123636   -0.000419993   -0.007402698
  16   C   :    0.007819051    0.006136837   -0.000713860
  17   C   :    0.001009283    0.007489993    0.000109285
  18   C   :    0.002486562   -0.001955571   -0.008318231
  19   C   :   -0.012219110   -0.007538042   -0.001232958
  20   C   :    0.010716070    0.025531390    0.004078335
  21   C   :   -0.016869655   -0.010121404   -0.001603129
  22   C   :    0.002931664   -0.006001453    0.006249020
  23   C   :    0.004522766   -0.000697753    0.006401688
  24   C   :    0.003696438    0.002653647    0.006854205
  25   H   :    0.003634442    0.004843163    0.007962482
  26   H   :   -0.005875952   -0.000494978    0.008233173
  27   H   :    0.003233248   -0.003370451    0.008115283
  28   H   :   -0.007462813    0.002107280    0.007863099
  29   H   :   -0.006214721    0.003905240   -0.010210747
  30   H   :    0.005512186   -0.002976093   -0.007647834
  31   H   :   -0.003458382   -0.003832881   -0.007767896
  32   H   :    0.004560970    0.000710834   -0.007996313
  33   H   :   -0.001308380   -0.005835782   -0.007977274
  34   H   :   -0.003670987    0.004697288   -0.008088186
  35   H   :    0.004634100    0.000276147   -0.007980508
  36   H   :   -0.006161724    0.004185961   -0.007677468
  37   H   :   -0.007076642    0.001885151    0.010453678
  38   H   :    0.005833996   -0.002407708    0.007665228
  39   H   :    0.000691128    0.004984327    0.007758163
  40   H   :    0.002684687   -0.003946304    0.007852763
[...]
   5 C :   -0.003683
   6 C :   -0.077752
   7 C :   -0.078842
   8 C :   -0.078707
   9 C :   -0.079078
  10 C :   -0.077543
  11 C :   -0.078268
  12 C :   -0.078253
  13 C :   -0.078302
  14 C :   -0.078275
  15 C :   -0.003413
  16 C :   -0.003691
  17 C :   -0.077526
  18 C :   -0.079051
  19 C :   -0.078724
  20 C :   -0.078839
  21 C :   -0.077740
  22 C :   -0.078453
  23 C :   -0.078095
  24 H :    0.079597
  25 H :    0.079727
  26 H :    0.079237
  27 H :    0.079438
  28 H :    0.079482
  29 H :    0.079176
  30 H :    0.079694
  31 H :    0.079625
  32 H :    0.079640
  33 H :    0.079689
  34 H :    0.079175
  35 H :    0.079467
  36 H :    0.079443
  37 H :    0.079234
  38 H :    0.079734
  39 H :    0.079587
  40 H :    0.079828
  41 H :    0.079824
Sum of atomic charges:   -0.0000000

--------------------------------
MULLIKEN REDUCED ORBITAL CHARGES
--------------------------------
  0 C s       :     3.138887  s :     3.138887
      pz      :     0.949694  p :     2.864807
      px      :     0.980771
      py      :     0.934342
  1 C s       :     3.138893  s :     3.138893
      pz      :     0.949462  p :     2.864813
      px      :     0.981158
      py      :     0.934193
  2 C s       :     3.149870  s :     3.149870
      pz      :     0.970595  p :     2.928243
      px      :     0.991746
      py      :     0.965903
  3 C s       :     3.149940  s :     3.149940
      pz      :     0.971660  p :     2.928491
      px      :     0.997742
      py      :     0.959089
  4 C s       :     3.139438  s :     3.139438
      pz      :     0.949278  p :     2.863982
      px      :     0.980434
      py      :     0.934270
  5 C s       :     3.139314  s :     3.139314
      pz      :     0.949802  p :     2.864369
      px      :     0.980648
      py      :     0.933919
  6 C s       :     3.150828  s :     3.150828
      pz      :     0.970138  p :     2.926923
      px      :     0.996833
      py      :     0.959952
  7 C s       :     3.147997  s :     3.147997
      pz      :     0.976513  p :     2.930845
      px      :     0.988100
      py      :     0.966231
  8 C s       :     3.148908  s :     3.148908
      pz      :     0.952423  p :     2.929799
      px      :     0.993045
      py      :     0.984332
  9 C s       :     3.148087  s :     3.148087
      pz      :     0.976018  p :     2.930991
      px      :     0.994850
      py      :     0.960123
 10 C s       :     3.150702  s :     3.150702
      pz      :     0.970878  p :     2.926841
      px      :     0.990689
      py      :     0.965274
 11 C s       :     3.149860  s :     3.149860
      pz      :     0.970686  p :     2.928408
      px      :     0.991836
      py      :     0.965886
 12 C s       :     3.150027  s :     3.150027
      pz      :     0.971518  p :     2.928226
      px      :     0.997574
      py      :     0.959133
 13 C s       :     3.149971  s :     3.149971
      pz      :     0.970849  p :     2.928331
      px      :     0.997650
      py      :     0.959832
 14 C s       :     3.149814  s :     3.149814
      pz      :     0.971717  p :     2.928461
      px      :     0.991306
      py      :     0.965438
 15 C s       :     3.139426  s :     3.139426
      pz      :     0.949507  p :     2.863987
      px      :     0.979986
      py      :     0.934493
 16 C s       :     3.139323  s :     3.139323
      pz      :     0.949571  p :     2.864368
      px      :     0.980923
      py      :     0.933875
 17 C s       :     3.150733  s :     3.150733
      pz      :     0.969858  p :     2.926794
      px      :     0.991087
      py      :     0.965849
 18 C s       :     3.148105  s :     3.148105
      pz      :     0.976498  p :     2.930946
      px      :     0.994790
      py      :     0.959658
 19 C s       :     3.148917  s :     3.148917
      pz      :     0.952126  p :     2.929807
      px      :     0.993511
      py      :     0.984170
 20 C s       :     3.147981  s :     3.147981
      pz      :     0.975716  p :     2.930858
      px      :     0.988461
      py      :     0.966680
 21 C s       :     3.150808  s :     3.150808
      pz      :     0.970846  p :     2.926932
      px      :     0.996748
      py      :     0.959337
 22 C s       :     3.149970  s :     3.149970
      pz      :     0.970940  p :     2.928483
      px      :     0.997723
      py      :     0.959820
 23 C s       :     3.149909  s :     3.149909
      pz      :     0.971575  p :     2.928186
      px      :     0.991146
      py      :     0.965466
 24 H s       :     0.920403  s :     0.920403
 25 H s       :     0.920273  s :     0.920273
 26 H s       :     0.920763  s :     0.920763
 27 H s       :     0.920562  s :     0.920562
 28 H s       :     0.920518  s :     0.920518
 29 H s       :     0.920824  s :     0.920824
 30 H s       :     0.920306  s :     0.920306
 31 H s       :     0.920375  s :     0.920375
 32 H s       :     0.920360  s :     0.920360
 33 H s       :     0.920311  s :     0.920311
 34 H s       :     0.920825  s :     0.920825
 35 H s       :     0.920533  s :     0.920533
 36 H s       :     0.920557  s :     0.920557
 37 H s       :     0.920766  s :     0.920766
 38 H s       :     0.920266  s :     0.920266
 39 H s       :     0.920413  s :     0.920413
 40 H s       :     0.920172  s :     0.920172
 41 H s       :     0.920176  s :     0.920176


                     *******************************
                     * LOEWDIN POPULATION ANALYSIS *
                     *******************************

----------------------
LOEWDIN ATOMIC CHARGES
----------------------
   0 C :    0.002666
   1 C :    0.002659
   2 C :   -0.045574
   3 C :   -0.045872
   4 C :    0.002994
   5 C :    0.002700
   6 C :   -0.045182
   7 C :   -0.042828
   8 C :   -0.042565
   9 C :   -0.043012
  10 C :   -0.045014
  11 C :   -0.045725
  12 C :   -0.045691
  13 C :   -0.045735
  14 C :   -0.045739
  15 C :    0.002997
  16 C :    0.002696
  17 C :   -0.044997
  18 C :   -0.042990
  19 C :   -0.042578
  20 C :   -0.042824
  21 C :   -0.045178
  22 C :   -0.045882
  23 C :   -0.045556
  24 H :    0.043889
  25 H :    0.043994
  26 H :    0.043558
  27 H :    0.043323
  28 H :    0.043352
  29 H :    0.043505
  30 H :    0.043964
  31 H :    0.043914
  32 H :    0.043928
  33 H :    0.043961
  34 H :    0.043503
  35 H :    0.043340
  36 H :    0.043327
  37 H :    0.043556
  38 H :    0.044000
  39 H :    0.043879
  40 H :    0.043622
  41 H :    0.043618

-------------------------------
LOEWDIN REDUCED ORBITAL CHARGES
-------------------------------
  0 C s       :     3.035278  s :     3.035278
      pz      :     0.997670  p :     2.962057
      px      :     0.990732
      py      :     0.973655
  1 C s       :     3.035280  s :     3.035280
      pz      :     0.997692  p :     2.962062
      px      :     0.990685
      py      :     0.973685
  2 C s       :     3.030758  s :     3.030758
      pz      :     1.004832  p :     3.014816
      px      :     1.004181
      py      :     1.005803
  3 C s       :     3.030809  s :     3.030809
      pz      :     1.005413  p :     3.015063
      px      :     1.006280
      py      :     1.003369
  4 C s       :     3.035827  s :     3.035827
      pz      :     0.997550  p :     2.961179
      px      :     0.989960
      py      :     0.973669
  5 C s       :     3.035759  s :     3.035759
      pz      :     0.997474  p :     2.961541
      px      :     0.990752
      py      :     0.973315
  6 C s       :     3.031758  s :     3.031758
      pz      :     1.004341  p :     3.013423
      px      :     1.005452
      py      :     1.003630
  7 C s       :     3.026936  s :     3.026936
      pz      :     1.009369  p :     3.015892
      px      :     1.000731
      py      :     1.005791
  8 C s       :     3.027769  s :     3.027769
      pz      :     1.003140  p :     3.014796
      px      :     1.001671
      py      :     1.009985
  9 C s       :     3.026996  s :     3.026996
      pz      :     1.009328  p :     3.016016
      px      :     1.003085
      py      :     1.003603
 10 C s       :     3.031648  s :     3.031648
      pz      :     1.004594  p :     3.013367
      px      :     1.003828
      py      :     1.004944
 11 C s       :     3.030742  s :     3.030742
      pz      :     1.004906  p :     3.014983
      px      :     1.004262
      py      :     1.005814
 12 C s       :     3.030901  s :     3.030901
      pz      :     1.005279  p :     3.014790
      px      :     1.006105
      py      :     1.003406
 13 C s       :     3.030850  s :     3.030850
      pz      :     1.004896  p :     3.014886
      px      :     1.006373
      py      :     1.003617
 14 C s       :     3.030700  s :     3.030700
      pz      :     1.005254  p :     3.015039
      px      :     1.004270
      py      :     1.005515
 15 C s       :     3.035819  s :     3.035819
      pz      :     0.997523  p :     2.961184
      px      :     0.989981
      py      :     0.973680
 16 C s       :     3.035764  s :     3.035764
      pz      :     0.997506  p :     2.961540
      px      :     0.990664
      py      :     0.973370
 17 C s       :     3.031679  s :     3.031679
      pz      :     1.004272  p :     3.013318
      px      :     1.003815
      py      :     1.005232
 18 C s       :     3.027011  s :     3.027011
      pz      :     1.009536  p :     3.015979
      px      :     1.002929
      py      :     1.003515
 19 C s       :     3.027779  s :     3.027779
      pz      :     1.003151  p :     3.014800
      px      :     1.001678
      py      :     1.009971
 20 C s       :     3.026920  s :     3.026920
      pz      :     1.009254  p :     3.015904
      px      :     1.000700
      py      :     1.005949
 21 C s       :     3.031731  s :     3.031731
      pz      :     1.004771  p :     3.013447
      px      :     1.005266
      py      :     1.003410
 22 C s       :     3.030844  s :     3.030844
      pz      :     1.004972  p :     3.015038
      px      :     1.006462
      py      :     1.003604
 23 C s       :     3.030801  s :     3.030801
      pz      :     1.005121  p :     3.014755
      px      :     1.004104
      py      :     1.005530
 24 H s       :     0.956111  s :     0.956111
 25 H s       :     0.956006  s :     0.956006
 26 H s       :     0.956442  s :     0.956442
 27 H s       :     0.956677  s :     0.956677
 28 H s       :     0.956648  s :     0.956648
 29 H s       :     0.956495  s :     0.956495
 30 H s       :     0.956036  s :     0.956036
 31 H s       :     0.956086  s :     0.956086
 32 H s       :     0.956072  s :     0.956072
 33 H s       :     0.956039  s :     0.956039
 34 H s       :     0.956497  s :     0.956497
 35 H s       :     0.956660  s :     0.956660
 36 H s       :     0.956673  s :     0.956673
 37 H s       :     0.956444  s :     0.956444
 38 H s       :     0.956000  s :     0.956000
 39 H s       :     0.956121  s :     0.956121
 40 H s       :     0.956378  s :     0.956378
 41 H s       :     0.956382  s :     0.956382


                      *****************************
                      * MAYER POPULATION ANALYSIS *
                      *****************************

  NA   - Mulliken gross atomic population
  ZA   - Total nuclear charge
  QA   - Mulliken gross atomic charge
  VA   - Mayer's total valence
  BVA  - Mayer's bonded valence
  FA   - Mayer's free valence

  ATOM       NA         ZA         QA         VA         BVA        FA
  0 C      6.0037     6.0000    -0.0037     3.9719     3.9719    -0.0000
  1 C      6.0037     6.0000    -0.0037     3.9719     3.9719    -0.0000
  2 C      6.0781     6.0000    -0.0781     3.9694     3.9694     0.0000
  3 C      6.0784     6.0000    -0.0784     3.9693     3.9693     0.0000
  4 C      6.0034     6.0000    -0.0034     3.9717     3.9717    -0.0000
  5 C      6.0037     6.0000    -0.0037     3.9717     3.9717     0.0000
  6 C      6.0778     6.0000    -0.0778     3.9691     3.9691    -0.0000
  7 C      6.0788     6.0000    -0.0788     3.9707     3.9707    -0.0000
  8 C      6.0787     6.0000    -0.0787     3.9703     3.9703    -0.0000
  9 C      6.0791     6.0000    -0.0791     3.9707     3.9707     0.0000
 10 C      6.0775     6.0000    -0.0775     3.9691     3.9691     0.0000
 11 C      6.0783     6.0000    -0.0783     3.9694     3.9694     0.0000
 12 C      6.0783     6.0000    -0.0783     3.9693     3.9693     0.0000
 13 C      6.0783     6.0000    -0.0783     3.9693     3.9693    -0.0000
 14 C      6.0783     6.0000    -0.0783     3.9694     3.9694    -0.0000
 15 C      6.0034     6.0000    -0.0034     3.9717     3.9717    -0.0000
 16 C      6.0037     6.0000    -0.0037     3.9717     3.9717     0.0000
 17 C      6.0775     6.0000    -0.0775     3.9691     3.9691    -0.0000
 18 C      6.0791     6.0000    -0.0791     3.9707     3.9707    -0.0000
 19 C      6.0787     6.0000    -0.0787     3.9703     3.9703    -0.0000
 20 C      6.0788     6.0000    -0.0788     3.9707     3.9707     0.0000
 21 C      6.0777     6.0000    -0.0777     3.9691     3.9691    -0.0000
 22 C      6.0785     6.0000    -0.0785     3.9693     3.9693     0.0000
 23 C      6.0781     6.0000    -0.0781     3.9694     3.9694    -0.0000
 24 H      0.9204     1.0000     0.0796     0.9937     0.9937     0.0000
 25 H      0.9203     1.0000     0.0797     0.9936     0.9936     0.0000
 26 H      0.9208     1.0000     0.0792     0.9937     0.9937    -0.0000
 27 H      0.9206     1.0000     0.0794     0.9937     0.9937     0.0000
 28 H      0.9205     1.0000     0.0795     0.9937     0.9937    -0.0000
 29 H      0.9208     1.0000     0.0792     0.9937     0.9937    -0.0000
 30 H      0.9203     1.0000     0.0797     0.9936     0.9936    -0.0000
 31 H      0.9204     1.0000     0.0796     0.9937     0.9937     0.0000
 32 H      0.9204     1.0000     0.0796     0.9937     0.9937    -0.0000
 33 H      0.9203     1.0000     0.0797     0.9936     0.9936     0.0000
 34 H      0.9208     1.0000     0.0792     0.9937     0.9937     0.0000
 35 H      0.9205     1.0000     0.0795     0.9937     0.9937    -0.0000
 36 H      0.9206     1.0000     0.0794     0.9937     0.9937    -0.0000
 37 H      0.9208     1.0000     0.0792     0.9937     0.9937    -0.0000
 38 H      0.9203     1.0000     0.0797     0.9936     0.9936     0.0000
 39 H      0.9204     1.0000     0.0796     0.9937     0.9937    -0.0000
 40 H      0.9202     1.0000     0.0798     0.9936     0.9936    -0.0000
 41 H      0.9202     1.0000     0.0798     0.9936     0.9936    -0.0000

  Mayer bond orders larger than 0.100000
B(  0-C ,  1-C ) :   1.0367 B(  0-C , 13-C ) :   1.3744 B(  0-C , 15-C ) :   0.1026 
B(  0-C , 23-C ) :   1.3739 B(  1-C ,  2-C ) :   1.3744 B(  1-C ,  4-C ) :   0.1026 
B(  1-C , 12-C ) :   1.3739 B(  2-C ,  3-C ) :   1.4562 B(  2-C , 11-C ) :   0.1035 
B(  2-C , 24-H ) :   0.9600 B(  3-C ,  4-C ) :   1.3756 B(  3-C , 12-C ) :   0.1035 
B(  3-C , 25-H ) :   0.9600 B(  4-C ,  5-C ) :   1.0335 B(  4-C , 11-C ) :   1.3751 
B(  5-C ,  6-C ) :   1.3823 B(  5-C ,  8-C ) :   0.1092 B(  5-C , 10-C ) :   1.3827 
B(  6-C ,  7-C ) :   1.4431 B(  6-C ,  9-C ) :   0.1101 B(  6-C , 26-H ) :   0.9603 
B(  7-C ,  8-C ) :   1.4234 B(  7-C , 10-C ) :   0.1102 B(  7-C , 27-H ) :   0.9631 
B(  8-C ,  9-C ) :   1.4239 B(  8-C , 40-H ) :   0.9634 B(  9-C , 10-C ) :   1.4427 
B(  9-C , 28-H ) :   0.9631 B( 10-C , 29-H ) :   0.9604 B( 11-C , 12-C ) :   1.4567 
B( 11-C , 30-H ) :   0.9600 B( 12-C , 31-H ) :   0.9600 B( 13-C , 14-C ) :   1.4562 
B( 13-C , 22-C ) :   0.1035 B( 13-C , 32-H ) :   0.9600 B( 14-C , 15-C ) :   1.3756 
B( 14-C , 23-C ) :   0.1035 B( 14-C , 33-H ) :   0.9600 B( 15-C , 16-C ) :   1.0335 
B( 15-C , 22-C ) :   1.3751 B( 16-C , 17-C ) :   1.3823 B( 16-C , 19-C ) :   0.1092 
B( 16-C , 21-C ) :   1.3825 B( 17-C , 18-C ) :   1.4430 B( 17-C , 20-C ) :   0.1102 
B( 17-C , 34-H ) :   0.9604 B( 18-C , 19-C ) :   1.4236 B( 18-C , 21-C ) :   0.1101 
B( 18-C , 35-H ) :   0.9631 B( 19-C , 20-C ) :   1.4237 B( 19-C , 41-H ) :   0.9634 
B( 20-C , 21-C ) :   1.4429 B( 20-C , 36-H ) :   0.9631 B( 21-C , 37-H ) :   0.9603 
B( 22-C , 23-C ) :   1.4567 B( 22-C , 38-H ) :   0.9600 B( 23-C , 39-H ) :   0.9600 


-------
TIMINGS
-------

Total SCF time: 0 days 0 hours 0 min 4 sec 

Total time                  ....       4.330 sec
Sum of individual times     ....       3.661 sec  ( 84.6%)

Fock matrix formation       ....       2.457 sec  ( 56.7%)
  XC integration            ....       0.271 sec  ( 11.0% of F)
    Basis function eval.    ....       0.081 sec  ( 29.7% of XC)
    Density eval.           ....       0.019 sec  (  7.2% of XC)
    XC-Functional eval.     ....       0.013 sec  (  4.6% of XC)
    XC-Potential eval.      ....       0.016 sec  (  6.0% of XC)
Diagonalization             ....       0.004 sec  (  0.1%)
Density matrix formation    ....       0.003 sec  (  0.1%)
Population analysis         ....       0.005 sec  (  0.1%)
Initial guess               ....       0.012 sec  (  0.3%)
Orbital Transformation      ....       0.000 sec  (  0.0%)
Orbital Orthonormalization  ....       0.006 sec  (  0.1%)
DIIS solution               ....       0.001 sec  (  0.0%)
SOSCF solution              ....       0.016 sec  (  0.4%)
Grid generation             ....       1.162 sec  ( 26.8%)

-------------------------   --------------------
FINAL SINGLE POINT ENERGY      -913.505138673795
-------------------------   --------------------

                                *** OPTIMIZATION RUN DONE ***

                            ***************************************
                            *     ORCA property calculations      *
                            ***************************************

                                    ---------------------
                                    Active property flags
                                    ---------------------
   (+) Dipole Moment


------------------------------------------------------------------------------
                       ORCA ELECTRIC PROPERTIES CALCULATION
------------------------------------------------------------------------------

Dipole Moment Calculation                       ... on
Quadrupole Moment Calculation                   ... off
Polarizability Calculation                      ... off
GBWName                                         ... dummy3.gbw
Electron density file                           ... dummy3.scfp
The origin for moment calculation is the CENTER OF MASS  = (-1.117250,  0.495099 -0.008615)

-------------
DIPOLE MOMENT
-------------
                                X             Y             Z
Electronic contribution:      0.00815      -0.00367       0.00126
Nuclear contribution   :     -0.00865       0.00396      -0.00153
                        -----------------------------------------
Total Dipole Moment    :     -0.00050       0.00029      -0.00027
                        -----------------------------------------
Magnitude (a.u.)       :      0.00064
Magnitude (Debye)      :      0.00163



--------------------
Rotational spectrum 
--------------------
 
Rotational constants in cm-1:     0.046729     0.002157     0.002075 
Rotational constants in MHz :  1400.899269    64.652106    62.204214 

 Dipole components along the rotational axes: 
x,y,z [a.u.] :    -0.000065    -0.000275    -0.000576 
x,y,z [Debye]:    -0.000165    -0.000698    -0.001465 

 

Timings for individual modules:

Sum of individual times         ...     1012.015 sec (=  16.867 min)
GTO integral calculation        ...      161.336 sec (=   2.689 min)  15.9 %
SCF iterations                  ...      546.831 sec (=   9.114 min)  54.0 %
SCF Gradient evaluation         ...      242.584 sec (=   4.043 min)  24.0 %
Geometry relaxation             ...       61.264 sec (=   1.021 min)   6.1 %
                             ****ORCA TERMINATED NORMALLY****
TOTAL RUN TIME: 0 days 0 hours 17 minutes 33 seconds 26 msec
