 Entering Gaussian System, Link 0=g09
 Initial command:
 /packages/gaussian/g09e01/l1.exe "/tmp/Gau-115693.inp" -scrdir="/tmp/"
 Entering Link 1 = /packages/gaussian/g09e01/l1.exe PID=    115694.
  
 Copyright (c) 1988,1990,1992,1993,1995,1998,2003,2009,2015,
            Gaussian, Inc.  All Rights Reserved.
  
 This is part of the Gaussian(R) 09 program.  It is based on
 the Gaussian(R) 03 system (copyright 2003, Gaussian, Inc.),
 the Gaussian(R) 98 system (copyright 1998, Gaussian, Inc.),
 the Gaussian(R) 94 system (copyright 1995, Gaussian, Inc.),
 the Gaussian 92(TM) system (copyright 1992, Gaussian, Inc.),
 the Gaussian 90(TM) system (copyright 1990, Gaussian, Inc.),
 the Gaussian 88(TM) system (copyright 1988, Gaussian, Inc.),
 the Gaussian 86(TM) system (copyright 1986, Carnegie Mellon
 University), and the Gaussian 82(TM) system (copyright 1983,
 Carnegie Mellon University). Gaussian is a federally registered
 trademark of Gaussian, Inc.
  
 This software contains proprietary and confidential information,
 including trade secrets, belonging to Gaussian, Inc.
  
 This software is provided under written license and may be
 used, copied, transmitted, or stored only in accord with that
 written license.
  
 The following legend is applicable only to US Government
 contracts under FAR:
  
                    RESTRICTED RIGHTS LEGEND
  
 Use, reproduction and disclosure by the US Government is
 subject to restrictions as set forth in subparagraphs (a)
 and (c) of the Commercial Computer Software - Restricted
 Rights clause in FAR 52.227-19.
  
 Gaussian, Inc.
 340 Quinnipiac St., Bldg. 40, Wallingford CT 06492
  
  
 ---------------------------------------------------------------
 Warning -- This program may not be used in any manner that
 competes with the business of Gaussian, Inc. or will provide
 assistance to any competitor of Gaussian, Inc.  The licensee
 of this program is prohibited from giving any competitor of
 Gaussian, Inc. access to this program.  By using this program,
 the user acknowledges that Gaussian, Inc. is engaged in the
 business of creating and licensing software in the field of
 computational chemistry and represents and warrants to the
 licensee that it is not a competitor of Gaussian, Inc. and that
 it will not use this program in any manner prohibited above.
 ---------------------------------------------------------------
  

 Cite this work as:
 Gaussian 09, Revision E.01,
 M. J. Frisch, G. W. Trucks, H. B. Schlegel, G. E. Scuseria, 
 M. A. Robb, J. R. Cheeseman, G. Scalmani, V. Barone, B. Mennucci, 
 G. A. Petersson, H. Nakatsuji, M. Caricato, X. Li, H. P. Hratchian, 
 A. F. Izmaylov, J. Bloino, G. Zheng, J. L. Sonnenberg, M. Hada, 
 M. Ehara, K. Toyota, R. Fukuda, J. Hasegawa, M. Ishida, T. Nakajima, 
 Y. Honda, O. Kitao, H. Nakai, T. Vreven, J. A. Montgomery, Jr., 
 J. E. Peralta, F. Ogliaro, M. Bearpark, J. J. Heyd, E. Brothers, 
 K. N. Kudin, V. N. Staroverov, T. Keith, R. Kobayashi, J. Normand, 
 K. Raghavachari, A. Rendell, J. C. Burant, S. S. Iyengar, J. Tomasi, 
 M. Cossi, N. Rega, J. M. Millam, M. Klene, J. E. Knox, J. B. Cross, 
 V. Bakken, C. Adamo, J. Jaramillo, R. Gomperts, R. E. Stratmann, 
 O. Yazyev, A. J. Austin, R. Cammi, C. Pomelli, J. W. Ochterski, 
 R. L. Martin, K. Morokuma, V. G. Zakrzewski, G. A. Voth, 
 P. Salvador, J. J. Dannenberg, S. Dapprich, A. D. Daniels, 
 O. Farkas, J. B. Foresman, J. V. Ortiz, J. Cioslowski, 
 and D. J. Fox, Gaussian, Inc., Wallingford CT, 2013.
 
 ******************************************
 Gaussian 09:  EM64L-G09RevE.01 30-Nov-2015
                18-Apr-2019 
 ******************************************
 ---------------------
 #n B3LYP/6-31G(d) opt
 ---------------------
 1/14=-1,18=20,19=15,26=3,38=1/1,3;
 2/9=110,12=2,17=6,18=5,40=1/2;
 3/5=1,6=6,7=1,11=2,16=1,25=1,30=1,71=1,74=-5/1,2,3;
 4//1;
 5/5=2,38=5/2;
 6/7=2,8=2,9=2,10=2,28=1/1;
 7//1,2,3,16;
 1/14=-1,18=20,19=15,26=3/3(2);
 2/9=110/2;
 99//99;
 2/9=110/2;
 3/5=1,6=6,7=1,11=2,16=1,25=1,30=1,71=1,74=-5/1,2,3;
 4/5=5,16=3,69=1/1;
 5/5=2,38=5/2;
 7//1,2,3,16;
 1/14=-1,18=20,19=15,26=3/3(-5);
 2/9=110/2;
 6/7=2,8=2,9=2,10=2,19=2,28=1/1;
 99/9=1/99;
 ---------------------
 geometry optimization
 ---------------------
 Symbolic Z-matrix:
 Charge =  0 Multiplicity = 1
 C                    -2.62498   3.14017  -0.03338 
 C                    -2.70485   2.46464   1.19977 
 C                    -3.13211   1.14324   1.26649 
 C                    -3.49712   0.43787   0.10298 
 C                    -3.05124  -0.98358  -0.01266 
 C                    -2.65023  -1.73864   1.11077 
 C                    -1.52083  -2.55195   1.0593 
 C                    -0.74797  -2.65404  -0.1189 
 C                    -1.39981  -2.23529  -1.29717 
 C                    -2.51948  -1.41287  -1.24493 
 C                    -3.78246   1.236    -1.02695 
 C                    -3.35342   2.56043  -1.09458 
 C                     2.61986   3.14341  -0.09083 
 C                     3.28861   2.5186   -1.16569 
 C                     3.71467   1.1955   -1.07044 
 C                     3.49253   0.44141   0.10358 
 C                     3.04559  -0.98409   0.05578 
 C                     2.61409  -1.53656  -1.16832 
 C                     1.50029  -2.36734  -1.23152 
 C                     0.74674  -2.66045  -0.07489 
 C                     1.42249  -2.44192   1.14486 
 C                     2.55403  -1.63451   1.20802 
 C                     3.205     1.19927   1.25693 
 C                     2.77424   2.51745   1.16162 
 H                    -2.22551   2.88653   2.07755 
 H                    -2.96581   0.60718   2.19518 
 H                    -3.12216  -1.57451   2.07591 
 H                    -1.15926  -2.97911   1.99028 
 H                    -0.92739  -2.37353  -2.26388 
 H                    -2.8438   -0.94337  -2.16837 
 H                    -4.20721   0.78458  -1.91989 
 H                    -3.457     3.09207  -2.03729 
 H                     3.34214   3.01011  -2.13381 
 H                     4.08159   0.71058  -1.97086 
 H                     3.02673  -1.17565  -2.10537 
 H                     1.12353  -2.6308   -2.21486 
 H                     0.97315  -2.75416   2.08263 
 H                     2.94166  -1.3794    2.18988 
 H                     3.10885   0.71133   2.22102 
 H                     2.35599   2.97765   2.05131 
 H                    -2.17717   4.12454  -0.11879 
 H                     2.16992   4.12546  -0.18981 
 

 GradGradGradGradGradGradGradGradGradGradGradGradGradGradGradGradGradGrad
 Berny optimization.
 Initialization pass.
                           ----------------------------
                           !    Initial Parameters    !
                           ! (Angstroms and Degrees)  !
 --------------------------                            --------------------------
 ! Name  Definition              Value          Derivative Info.                !
 --------------------------------------------------------------------------------
 ! R1    R(1,2)                  1.4083         estimate D2E/DX2                !
 ! R2    R(1,12)                 1.4117         estimate D2E/DX2                !
 ! R3    R(1,41)                 1.0848         estimate D2E/DX2                !
 ! R4    R(2,3)                  1.3904         estimate D2E/DX2                !
 ! R5    R(2,25)                 1.0855         estimate D2E/DX2                !
 ! R6    R(3,4)                  1.4087         estimate D2E/DX2                !
 ! R7    R(3,26)                 1.0851         estimate D2E/DX2                !
 ! R8    R(4,5)                  1.4942         estimate D2E/DX2                !
 ! R9    R(4,11)                 1.4125         estimate D2E/DX2                !
 ! R10   R(5,6)                  1.4117         estimate D2E/DX2                !
 ! R11   R(5,10)                 1.4091         estimate D2E/DX2                !
 ! R12   R(6,7)                  1.3927         estimate D2E/DX2                !
 ! R13   R(6,27)                 1.0868         estimate D2E/DX2                !
 ! R14   R(7,8)                  1.4128         estimate D2E/DX2                !
 ! R15   R(7,28)                 1.0862         estimate D2E/DX2                !
 ! R16   R(8,9)                  1.4102         estimate D2E/DX2                !
 ! R17   R(8,20)                 1.4954         estimate D2E/DX2                !
 ! R18   R(9,10)                 1.3902         estimate D2E/DX2                !
 ! R19   R(9,29)                 1.0848         estimate D2E/DX2                !
 ! R20   R(10,30)                1.0855         estimate D2E/DX2                !
 ! R21   R(11,12)                1.3938         estimate D2E/DX2                !
 ! R22   R(11,31)                1.087          estimate D2E/DX2                !
 ! R23   R(12,32)                1.0872         estimate D2E/DX2                !
 ! R24   R(13,14)                1.4117         estimate D2E/DX2                !
 ! R25   R(13,24)                1.4086         estimate D2E/DX2                !
 ! R26   R(13,42)                1.0847         estimate D2E/DX2                !
 ! R27   R(14,15)                1.3933         estimate D2E/DX2                !
 ! R28   R(14,33)                1.0871         estimate D2E/DX2                !
 ! R29   R(15,16)                1.4129         estimate D2E/DX2                !
 ! R30   R(15,34)                1.0865         estimate D2E/DX2                !
 ! R31   R(16,17)                1.4947         estimate D2E/DX2                !
 ! R32   R(16,23)                1.4097         estimate D2E/DX2                !
 ! R33   R(17,18)                1.4106         estimate D2E/DX2                !
 ! R34   R(17,22)                1.4115         estimate D2E/DX2                !
 ! R35   R(18,19)                1.3909         estimate D2E/DX2                !
 ! R36   R(18,35)                1.0856         estimate D2E/DX2                !
 ! R37   R(19,20)                1.4112         estimate D2E/DX2                !
 ! R38   R(19,36)                1.0855         estimate D2E/DX2                !
 ! R39   R(20,21)                1.4114         estimate D2E/DX2                !
 ! R40   R(21,22)                1.3915         estimate D2E/DX2                !
 ! R41   R(21,37)                1.0857         estimate D2E/DX2                !
 ! R42   R(22,38)                1.086          estimate D2E/DX2                !
 ! R43   R(23,24)                1.3901         estimate D2E/DX2                !
 ! R44   R(23,39)                1.0848         estimate D2E/DX2                !
 ! R45   R(24,40)                1.0855         estimate D2E/DX2                !
 ! A1    A(2,1,12)             115.5929         estimate D2E/DX2                !
 ! A2    A(2,1,41)             121.8436         estimate D2E/DX2                !
 ! A3    A(12,1,41)            121.7673         estimate D2E/DX2                !
 ! A4    A(1,2,3)              121.0189         estimate D2E/DX2                !
 ! A5    A(1,2,25)             119.7755         estimate D2E/DX2                !
 ! A6    A(3,2,25)             117.7935         estimate D2E/DX2                !
 ! A7    A(2,3,4)              121.0554         estimate D2E/DX2                !
 ! A8    A(2,3,26)             117.612          estimate D2E/DX2                !
 ! A9    A(4,3,26)             119.9481         estimate D2E/DX2                !
 ! A10   A(3,4,5)              117.5763         estimate D2E/DX2                !
 ! A11   A(3,4,11)             115.4746         estimate D2E/DX2                !
 ! A12   A(5,4,11)             122.4048         estimate D2E/DX2                !
 ! A13   A(4,5,6)              122.1388         estimate D2E/DX2                !
 ! A14   A(4,5,10)             118.0416         estimate D2E/DX2                !
 ! A15   A(6,5,10)             115.1996         estimate D2E/DX2                !
 ! A16   A(5,6,7)              120.8819         estimate D2E/DX2                !
 ! A17   A(5,6,27)             120.1699         estimate D2E/DX2                !
 ! A18   A(7,6,27)             118.239          estimate D2E/DX2                !
 ! A19   A(6,7,8)              121.1079         estimate D2E/DX2                !
 ! A20   A(6,7,28)             117.8979         estimate D2E/DX2                !
 ! A21   A(8,7,28)             120.2818         estimate D2E/DX2                !
 ! A22   A(7,8,9)              114.9921         estimate D2E/DX2                !
 ! A23   A(7,8,20)             121.5057         estimate D2E/DX2                !
 ! A24   A(9,8,20)             119.2025         estimate D2E/DX2                !
 ! A25   A(8,9,10)             121.1015         estimate D2E/DX2                !
 ! A26   A(8,9,29)             120.361          estimate D2E/DX2                !
 ! A27   A(10,9,29)            117.3613         estimate D2E/DX2                !
 ! A28   A(5,10,9)             121.1322         estimate D2E/DX2                !
 ! A29   A(5,10,30)            119.9617         estimate D2E/DX2                !
 ! A30   A(9,10,30)            117.6789         estimate D2E/DX2                !
 ! A31   A(4,11,12)            120.9001         estimate D2E/DX2                !
 ! A32   A(4,11,31)            120.0939         estimate D2E/DX2                !
 ! A33   A(12,11,31)           118.3622         estimate D2E/DX2                !
 ! A34   A(1,12,11)            120.8361         estimate D2E/DX2                !
 ! A35   A(1,12,32)            120.0101         estimate D2E/DX2                !
 ! A36   A(11,12,32)           118.5142         estimate D2E/DX2                !
 ! A37   A(14,13,24)           115.3647         estimate D2E/DX2                !
 ! A38   A(14,13,42)           121.8505         estimate D2E/DX2                !
 ! A39   A(24,13,42)           121.93           estimate D2E/DX2                !
 ! A40   A(13,14,15)           120.8709         estimate D2E/DX2                !
 ! A41   A(13,14,33)           120.0859         estimate D2E/DX2                !
 ! A42   A(15,14,33)           118.3723         estimate D2E/DX2                !
 ! A43   A(14,15,16)           121.0353         estimate D2E/DX2                !
 ! A44   A(14,15,34)           118.0628         estimate D2E/DX2                !
 ! A45   A(16,15,34)           120.2314         estimate D2E/DX2                !
 ! A46   A(15,16,17)           121.9682         estimate D2E/DX2                !
 ! A47   A(15,16,23)           115.1486         estimate D2E/DX2                !
 ! A48   A(17,16,23)           118.5478         estimate D2E/DX2                !
 ! A49   A(16,17,18)           119.5209         estimate D2E/DX2                !
 ! A50   A(16,17,22)           121.1642         estimate D2E/DX2                !
 ! A51   A(18,17,22)           114.9222         estimate D2E/DX2                !
 ! A52   A(17,18,19)           121.2181         estimate D2E/DX2                !
 ! A53   A(17,18,35)           120.1678         estimate D2E/DX2                !
 ! A54   A(19,18,35)           117.6267         estimate D2E/DX2                !
 ! A55   A(18,19,20)           120.9568         estimate D2E/DX2                !
 ! A56   A(18,19,36)           117.6485         estimate D2E/DX2                !
 ! A57   A(20,19,36)           120.4456         estimate D2E/DX2                !
 ! A58   A(8,20,19)            120.579          estimate D2E/DX2                !
 ! A59   A(8,20,21)            120.2201         estimate D2E/DX2                !
 ! A60   A(19,20,21)           114.8647         estimate D2E/DX2                !
 ! A61   A(20,21,22)           121.2238         estimate D2E/DX2                !
 ! A62   A(20,21,37)           120.2481         estimate D2E/DX2                !
 ! A63   A(22,21,37)           117.6589         estimate D2E/DX2                !
 ! A64   A(17,22,21)           120.8981         estimate D2E/DX2                !
 ! A65   A(17,22,38)           120.3643         estimate D2E/DX2                !
 ! A66   A(21,22,38)           117.8785         estimate D2E/DX2                !
 ! A67   A(16,23,24)           121.1255         estimate D2E/DX2                !
 ! A68   A(16,23,39)           120.224          estimate D2E/DX2                !
 ! A69   A(24,23,39)           117.3878         estimate D2E/DX2                !
 ! A70   A(13,24,23)           121.0853         estimate D2E/DX2                !
 ! A71   A(13,24,40)           119.8765         estimate D2E/DX2                !
 ! A72   A(23,24,40)           117.7259         estimate D2E/DX2                !
 ! D1    D(12,1,2,3)            17.924          estimate D2E/DX2                !
 ! D2    D(12,1,2,25)         -175.9364         estimate D2E/DX2                !
 ! D3    D(41,1,2,3)          -172.1295         estimate D2E/DX2                !
 ! D4    D(41,1,2,25)           -5.9898         estimate D2E/DX2                !
 ! D5    D(2,1,12,11)          -17.843          estimate D2E/DX2                !
 ! D6    D(2,1,12,32)          171.4598         estimate D2E/DX2                !
 ! D7    D(41,1,12,11)         172.2021         estimate D2E/DX2                !
 ! D8    D(41,1,12,32)           1.5049         estimate D2E/DX2                !
 ! D9    D(1,2,3,4)              0.0725         estimate D2E/DX2                !
 ! D10   D(1,2,3,26)           166.6321         estimate D2E/DX2                !
 ! D11   D(25,2,3,4)          -166.3331         estimate D2E/DX2                !
 ! D12   D(25,2,3,26)            0.2264         estimate D2E/DX2                !
 ! D13   D(2,3,4,5)            138.634          estimate D2E/DX2                !
 ! D14   D(2,3,4,11)           -18.0755         estimate D2E/DX2                !
 ! D15   D(26,3,4,5)           -27.6152         estimate D2E/DX2                !
 ! D16   D(26,3,4,11)          175.6753         estimate D2E/DX2                !
 ! D17   D(3,4,5,6)             19.0853         estimate D2E/DX2                !
 ! D18   D(3,4,5,10)          -135.6481         estimate D2E/DX2                !
 ! D19   D(11,4,5,6)           174.0746         estimate D2E/DX2                !
 ! D20   D(11,4,5,10)           19.3413         estimate D2E/DX2                !
 ! D21   D(3,4,11,12)           18.0909         estimate D2E/DX2                !
 ! D22   D(3,4,11,31)         -171.2571         estimate D2E/DX2                !
 ! D23   D(5,4,11,12)         -137.3826         estimate D2E/DX2                !
 ! D24   D(5,4,11,31)           33.2695         estimate D2E/DX2                !
 ! D25   D(4,5,6,7)           -136.5216         estimate D2E/DX2                !
 ! D26   D(4,5,6,27)            33.66           estimate D2E/DX2                !
 ! D27   D(10,5,6,7)            18.8741         estimate D2E/DX2                !
 ! D28   D(10,5,6,27)         -170.9442         estimate D2E/DX2                !
 ! D29   D(4,5,10,9)           138.1696         estimate D2E/DX2                !
 ! D30   D(4,5,10,30)          -28.8813         estimate D2E/DX2                !
 ! D31   D(6,5,10,9)           -18.2873         estimate D2E/DX2                !
 ! D32   D(6,5,10,30)          174.6619         estimate D2E/DX2                !
 ! D33   D(5,6,7,8)             -0.447          estimate D2E/DX2                !
 ! D34   D(5,6,7,28)           169.9067         estimate D2E/DX2                !
 ! D35   D(27,6,7,8)          -170.8137         estimate D2E/DX2                !
 ! D36   D(27,6,7,28)           -0.46           estimate D2E/DX2                !
 ! D37   D(6,7,8,9)            -18.5611         estimate D2E/DX2                !
 ! D38   D(6,7,8,20)           137.9427         estimate D2E/DX2                !
 ! D39   D(28,7,8,9)           171.3134         estimate D2E/DX2                !
 ! D40   D(28,7,8,20)          -32.1828         estimate D2E/DX2                !
 ! D41   D(7,8,9,10)            19.1985         estimate D2E/DX2                !
 ! D42   D(7,8,9,29)          -173.5221         estimate D2E/DX2                !
 ! D43   D(20,8,9,10)         -137.8836         estimate D2E/DX2                !
 ! D44   D(20,8,9,29)           29.3957         estimate D2E/DX2                !
 ! D45   D(7,8,20,19)         -161.1787         estimate D2E/DX2                !
 ! D46   D(7,8,20,21)           -5.7554         estimate D2E/DX2                !
 ! D47   D(9,8,20,19)           -5.6334         estimate D2E/DX2                !
 ! D48   D(9,8,20,21)          149.7899         estimate D2E/DX2                !
 ! D49   D(8,9,10,5)            -0.8138         estimate D2E/DX2                !
 ! D50   D(8,9,10,30)          166.5226         estimate D2E/DX2                !
 ! D51   D(29,9,10,5)         -168.4608         estimate D2E/DX2                !
 ! D52   D(29,9,10,30)          -1.1244         estimate D2E/DX2                !
 ! D53   D(4,11,12,1)           -0.1641         estimate D2E/DX2                !
 ! D54   D(4,11,12,32)         170.6694         estimate D2E/DX2                !
 ! D55   D(31,11,12,1)        -170.9743         estimate D2E/DX2                !
 ! D56   D(31,11,12,32)         -0.1408         estimate D2E/DX2                !
 ! D57   D(24,13,14,15)         18.3633         estimate D2E/DX2                !
 ! D58   D(24,13,14,33)       -171.1764         estimate D2E/DX2                !
 ! D59   D(42,13,14,15)       -172.0332         estimate D2E/DX2                !
 ! D60   D(42,13,14,33)         -1.5729         estimate D2E/DX2                !
 ! D61   D(14,13,24,23)        -18.1172         estimate D2E/DX2                !
 ! D62   D(14,13,24,40)        175.261          estimate D2E/DX2                !
 ! D63   D(42,13,24,23)        172.2884         estimate D2E/DX2                !
 ! D64   D(42,13,24,40)          5.6667         estimate D2E/DX2                !
 ! D65   D(13,14,15,16)         -0.1054         estimate D2E/DX2                !
 ! D66   D(13,14,15,34)        170.5301         estimate D2E/DX2                !
 ! D67   D(33,14,15,16)       -170.7255         estimate D2E/DX2                !
 ! D68   D(33,14,15,34)         -0.09           estimate D2E/DX2                !
 ! D69   D(14,15,16,17)        137.8704         estimate D2E/DX2                !
 ! D70   D(14,15,16,23)        -18.3794         estimate D2E/DX2                !
 ! D71   D(34,15,16,17)        -32.5634         estimate D2E/DX2                !
 ! D72   D(34,15,16,23)        171.1868         estimate D2E/DX2                !
 ! D73   D(15,16,17,18)        -10.931          estimate D2E/DX2                !
 ! D74   D(15,16,17,22)       -166.2131         estimate D2E/DX2                !
 ! D75   D(23,16,17,18)        144.5477         estimate D2E/DX2                !
 ! D76   D(23,16,17,22)        -10.7345         estimate D2E/DX2                !
 ! D77   D(15,16,23,24)         18.6867         estimate D2E/DX2                !
 ! D78   D(15,16,23,39)       -174.4835         estimate D2E/DX2                !
 ! D79   D(17,16,23,24)       -138.4235         estimate D2E/DX2                !
 ! D80   D(17,16,23,39)         28.4063         estimate D2E/DX2                !
 ! D81   D(16,17,18,19)       -138.2421         estimate D2E/DX2                !
 ! D82   D(16,17,18,35)         30.1206         estimate D2E/DX2                !
 ! D83   D(22,17,18,19)         18.5202         estimate D2E/DX2                !
 ! D84   D(22,17,18,35)       -173.1171         estimate D2E/DX2                !
 ! D85   D(16,17,22,21)        136.46           estimate D2E/DX2                !
 ! D86   D(16,17,22,38)        -32.7044         estimate D2E/DX2                !
 ! D87   D(18,17,22,21)        -19.8851         estimate D2E/DX2                !
 ! D88   D(18,17,22,38)        170.9505         estimate D2E/DX2                !
 ! D89   D(17,18,19,20)          1.4473         estimate D2E/DX2                !
 ! D90   D(17,18,19,36)        170.3473         estimate D2E/DX2                !
 ! D91   D(35,18,19,20)       -167.2007         estimate D2E/DX2                !
 ! D92   D(35,18,19,36)          1.6993         estimate D2E/DX2                !
 ! D93   D(18,19,20,8)         136.7206         estimate D2E/DX2                !
 ! D94   D(18,19,20,21)        -19.9444         estimate D2E/DX2                !
 ! D95   D(36,19,20,8)         -31.8701         estimate D2E/DX2                !
 ! D96   D(36,19,20,21)        171.4648         estimate D2E/DX2                !
 ! D97   D(8,20,21,22)        -138.188          estimate D2E/DX2                !
 ! D98   D(8,20,21,37)          30.8892         estimate D2E/DX2                !
 ! D99   D(19,20,21,22)         18.5677         estimate D2E/DX2                !
 ! D100  D(19,20,21,37)       -172.3551         estimate D2E/DX2                !
 ! D101  D(20,21,22,17)          1.3754         estimate D2E/DX2                !
 ! D102  D(20,21,22,38)        170.8016         estimate D2E/DX2                !
 ! D103  D(37,21,22,17)       -167.9747         estimate D2E/DX2                !
 ! D104  D(37,21,22,38)          1.4515         estimate D2E/DX2                !
 ! D105  D(16,23,24,13)         -0.4663         estimate D2E/DX2                !
 ! D106  D(16,23,24,40)        166.4337         estimate D2E/DX2                !
 ! D107  D(39,23,24,13)       -167.6559         estimate D2E/DX2                !
 ! D108  D(39,23,24,40)         -0.7559         estimate D2E/DX2                !
 --------------------------------------------------------------------------------
 Trust Radius=3.00D-01 FncErr=1.00D-07 GrdErr=1.00D-06
 Number of steps in this run=    235 maximum allowed number of steps=    252.
 GradGradGradGradGradGradGradGradGradGradGradGradGradGradGradGradGradGrad

                          Input orientation:                          
 ---------------------------------------------------------------------
 Center     Atomic      Atomic             Coordinates (Angstroms)
 Number     Number       Type             X           Y           Z
 ---------------------------------------------------------------------
      1          6           0       -2.624978    3.140165   -0.033382
      2          6           0       -2.704850    2.464643    1.199771
      3          6           0       -3.132109    1.143235    1.266491
      4          6           0       -3.497120    0.437865    0.102984
      5          6           0       -3.051242   -0.983579   -0.012657
      6          6           0       -2.650232   -1.738643    1.110771
      7          6           0       -1.520828   -2.551950    1.059298
      8          6           0       -0.747971   -2.654044   -0.118895
      9          6           0       -1.399810   -2.235285   -1.297166
     10          6           0       -2.519484   -1.412874   -1.244930
     11          6           0       -3.782460    1.235999   -1.026948
     12          6           0       -3.353415    2.560431   -1.094575
     13          6           0        2.619863    3.143409   -0.090833
     14          6           0        3.288607    2.518604   -1.165691
     15          6           0        3.714665    1.195501   -1.070438
     16          6           0        3.492529    0.441414    0.103575
     17          6           0        3.045592   -0.984094    0.055776
     18          6           0        2.614088   -1.536562   -1.168322
     19          6           0        1.500286   -2.367336   -1.231520
     20          6           0        0.746735   -2.660445   -0.074889
     21          6           0        1.422489   -2.441922    1.144862
     22          6           0        2.554026   -1.634505    1.208024
     23          6           0        3.205001    1.199269    1.256932
     24          6           0        2.774236    2.517454    1.161622
     25          1           0       -2.225506    2.886531    2.077553
     26          1           0       -2.965805    0.607176    2.195182
     27          1           0       -3.122165   -1.574512    2.075908
     28          1           0       -1.159259   -2.979112    1.990280
     29          1           0       -0.927393   -2.373530   -2.263876
     30          1           0       -2.843798   -0.943373   -2.168366
     31          1           0       -4.207208    0.784579   -1.919886
     32          1           0       -3.456999    3.092068   -2.037291
     33          1           0        3.342143    3.010110   -2.133809
     34          1           0        4.081589    0.710580   -1.970861
     35          1           0        3.026733   -1.175646   -2.105368
     36          1           0        1.123535   -2.630800   -2.214859
     37          1           0        0.973145   -2.754161    2.082632
     38          1           0        2.941662   -1.379399    2.189877
     39          1           0        3.108850    0.711329    2.221017
     40          1           0        2.355993    2.977647    2.051310
     41          1           0       -2.177169    4.124541   -0.118789
     42          1           0        2.169923    4.125464   -0.189813
 ---------------------------------------------------------------------
                    Distance matrix (angstroms):
                    1          2          3          4          5
     1  C    0.000000
     2  C    1.408324   0.000000
     3  C    2.436100   1.390367   0.000000
     4  C    2.842825   2.436896   1.408733   0.000000
     5  C    4.145768   3.671540   2.483163   1.494217   0.000000
     6  C    5.011237   4.204583   2.926034   2.543628   1.411744
     7  C    5.900277   5.156340   4.036527   3.709348   2.439476
     8  C    6.091250   5.636418   4.692839   4.143302   2.847244
     9  C    5.656293   5.479703   4.581222   3.674896   2.438024
    10  C    4.712658   4.587599   3.635414   2.489554   1.409098
    11  C    2.439833   2.762080   2.385671   1.412510   2.547546
    12  C    1.411681   2.386176   2.762617   2.441329   3.717776
    13  C    5.245157   5.520774   6.239247   6.691413   7.014241
    14  C    6.053012   6.443590   7.002338   7.210069   7.334062
    15  C    6.711801   6.926380   7.234797   7.345800   7.186431
    16  C    6.687743   6.610795   6.762452   6.989650   6.698138
    17  C    7.012334   6.802212   6.644949   6.695616   6.097218
    18  C    7.113907   7.064602   6.791790   6.546865   5.808383
    19  C    6.984691   6.851450   6.326393   5.884226   4.910888
    20  C    6.709489   6.309099   5.595776   5.257515   4.152154
    21  C    6.994994   6.411889   5.797629   5.794932   4.845708
    22  C    7.152667   6.667748   6.328617   6.490932   5.773456
    23  C    6.278586   6.044070   6.337365   6.843227   6.746648
    24  C    5.564828   5.479473   6.065013   6.691436   6.897272
    25  H    2.163320   1.085477   2.125754   3.392918   4.475329
    26  H    3.390972   2.123470   1.085119   2.165238   2.722564
    27  H    5.188880   4.154099   2.835737   2.843006   2.171713
    28  H    6.609772   5.713862   4.627067   4.550078   3.401986
    29  H    6.185283   6.210002   5.449027   4.484358   3.392740
    30  H    4.613168   4.793561   4.029305   2.737458   2.166040
    31  H    3.407511   3.848630   3.381933   2.171736   2.846078
    32  H    2.170305   3.382005   3.849478   3.409865   4.568882
    33  H    6.327341   6.926501   7.547397   7.641676   7.830978
    34  H    7.391532   7.693205   7.918654   7.862063   7.588281
    35  H    7.406834   7.551602   7.394456   7.073959   6.431027
    36  H    7.219019   7.230475   6.668856   6.011618   4.999179
    37  H    7.222678   6.445386   5.719169   5.838776   4.870409
    38  H    7.507118   6.902178   6.641311   7.008244   6.397087
    39  H    6.622563   6.157610   6.328288   6.942599   6.768216
    40  H    5.402076   5.157560   5.839544   6.671237   7.013520
    41  H    1.084815   2.184562   3.423317   3.922121   5.183450
    42  H    4.897587   5.334106   6.255082   6.767532   7.307138
                    6          7          8          9         10
     6  C    0.000000
     7  C    1.392721   0.000000
     8  C    2.443079   1.412753   0.000000
     9  C    2.758327   2.380724   1.410169   0.000000
    10  C    2.381711   2.757585   2.438589   1.390237   0.000000
    11  C    3.834094   4.880160   5.016485   4.218987   2.942644
    12  C    4.882628   5.842430   5.910249   5.182326   4.062659
    13  C    7.283693   7.134791   6.704741   6.822269   6.964520
    14  C    7.653512   7.334287   6.644248   6.678173   7.014037
    15  C    7.340217   6.781560   5.969887   6.162755   6.760080
    16  C    6.595499   5.916704   5.254826   5.749937   6.434373
    17  C    5.841641   4.931270   4.148537   4.812227   5.731122
    18  C    5.740049   4.805292   3.695065   4.076296   5.135633
    19  C    4.807118   3.795927   2.524836   2.903843   4.131553
    20  C    3.714148   2.537714   1.495367   2.506467   3.686952
    21  C    4.133137   2.946615   2.520511   3.737857   4.723261
    22  C    5.206208   4.179505   3.701805   4.719082   5.639735
    23  C    6.552591   6.036900   5.689192   6.286801   6.771435
    24  C    6.895056   6.645066   6.386709   6.786518   7.018721
    25  H    4.744185   5.577678   6.140478   6.188982   5.441525
    26  H    2.603536   3.654896   4.572668   4.767433   4.014247
    27  H    1.086807   2.133814   3.408716   3.844575   3.378952
    28  H    2.129624   1.086244   2.173349   3.379119   3.843162
    29  H    3.841809   3.380456   2.170674   1.084812   2.120345
    30  H    3.379743   3.841300   3.393997   2.124412   1.085516
    31  H    4.239777   5.217720   5.199425   4.169993   2.851803
    32  H    5.822108   6.722541   6.636029   5.758516   4.669183
    33  H    8.305812   8.048660   7.271283   7.120411   7.396727
    34  H    7.798241   7.156329   6.170504   6.259211   6.972101
    35  H    6.548927   5.708733   4.514435   4.622803   5.617575
    36  H    5.108530   4.209392   2.810007   2.714012   3.961779
    37  H    3.886470   2.703332   2.796245   4.162113   5.007013
    38  H    5.706383   4.750463   4.535255   5.633861   6.451599
    39  H    6.356259   5.782084   5.628143   6.433363   6.942850
    40  H    6.941923   6.825707   6.786776   7.245206   7.342489
    41  H    6.009370   6.811329   6.927613   6.514618   5.661125
    42  H    7.701504   7.731092   7.381115   7.377557   7.333280
                   11         12         13         14         15
    11  C    0.000000
    12  C    1.393834   0.000000
    13  C    6.745685   6.085015   0.000000
    14  C    7.187789   6.642534   1.411708   0.000000
    15  C    7.497361   7.198706   2.439787   1.393270   0.000000
    16  C    7.405060   7.265862   2.846071   2.442814   1.412904
    17  C    7.261088   7.405016   4.151990   3.717517   2.542961
    18  C    6.973013   7.238914   4.802410   4.110882   2.947036
    19  C    6.397912   6.918096   5.737851   5.203348   4.198003
    20  C    6.049983   6.716289   6.098654   5.871415   4.966694
    21  C    6.733153   7.269654   5.844362   5.781684   4.836576
    22  C    7.306569   7.602454   4.951750   4.839674   3.814106
    23  C    7.351331   7.098955   2.436911   2.759844   2.382524
    24  C    7.030094   6.529960   1.408650   2.383477   2.759358
    25  H    3.845294   3.382442   5.314648   6.407764   6.932176
    26  H    3.382967   3.845510   6.546604   7.353006   7.459161
    27  H    4.238240   5.215668   7.741087   8.267984   8.019645
    28  H    5.809648   6.709485   7.489864   7.743936   7.109889
    29  H    4.765511   5.621105   6.909541   6.550850   5.975866
    30  H    2.633170   3.699916   7.132287   7.113159   6.985246
    31  H    1.086982   2.136294   7.451068   7.730647   7.977875
    32  H    2.138156   1.087235   6.381190   6.825815   7.480945
    33  H    7.425132   6.790634   2.170992   1.087059   2.135963
    34  H    7.937903   7.711622   3.404380   2.132151   1.086528
    35  H    7.303707   7.462323   4.783109   3.820871   2.677063
    36  H    6.358620   6.946006   6.331822   5.683718   4.760697
    37  H    6.943100   7.553718   6.497458   6.611733   5.749575
    38  H    7.899499   8.120214   5.075528   5.155059   4.225790
    39  H    7.636407   7.494878   3.390984   3.842961   3.381584
    40  H    7.084463   6.532075   2.164690   3.380767   3.842830
    41  H    3.427154   2.186813   4.896419   5.792214   6.648204
    42  H    6.669383   5.811642   1.084747   2.187645   3.427304
                   16         17         18         19         20
    16  C    0.000000
    17  C    1.494694   0.000000
    18  C    2.510333   1.410614   0.000000
    19  C    3.693317   2.440996   1.390947   0.000000
    20  C    4.146416   2.848152   2.438384   1.411222   0.000000
    21  C    3.699050   2.438408   2.755069   2.378825   1.411449
    22  C    2.531805   1.411505   2.379122   2.756589   2.442278
    23  C    1.409698   2.497050   3.703486   4.671094   4.765943
    24  C    2.438309   3.682033   4.678604   5.586703   5.696522
    25  H    6.524654   6.844983   7.315813   7.241175   6.651027
    26  H    6.790609   6.576176   6.858861   6.366787   5.441831
    27  H    7.190844   6.516959   6.590225   5.738876   4.557803
    28  H    6.074437   5.040156   5.127949   4.222256   2.828301
    29  H    5.750169   4.805822   3.800374   2.638072   2.770684
    30  H    6.872292   6.295505   5.580366   4.666521   4.496989
    31  H    7.968570   7.722341   7.244489   6.556211   6.309814
    32  H    7.739846   7.954855   7.683581   7.418156   7.390115
    33  H    3.409795   4.564635   4.704727   5.755301   6.567381
    34  H    2.173184   2.837687   2.801299   4.084522   5.106836
    35  H    2.776919   2.169698   1.085630   2.124565   3.394976
    36  H    4.519488   3.400254   2.124699   1.085500   2.173092
    37  H    4.525004   3.396516   3.839784   3.378034   2.171391
    38  H    2.823379   2.172891   3.377796   3.841815   3.404108
    39  H    2.168784   2.750769   4.097002   4.897517   4.713770
    40  H    3.393798   4.489220   5.550741   6.330723   6.236867
    41  H    6.764639   7.307931   7.490377   7.543627   7.388314
    42  H    3.925250   5.189864   5.763098   6.609843   6.934496
                   21         22         23         24         25
    21  C    0.000000
    22  C    1.391506   0.000000
    23  C    4.055636   2.907995   0.000000
    24  C    5.140322   4.158054   1.390055   0.000000
    25  H    6.524584   6.636247   5.745492   5.096329   0.000000
    26  H    5.445851   6.038886   6.269748   6.137221   2.399445
    27  H    4.719441   5.742470   6.956839   7.235168   4.550264
    28  H    2.769247   4.025963   6.086332   6.809647   5.962404
    29  H    4.140787   4.971974   6.499051   7.025512   6.942719
    30  H    5.605741   6.404231   7.274033   7.391106   5.751372
    31  H    7.176105   7.832629   8.074960   7.825542   4.932024
    32  H    8.034958   8.306924   7.669214   7.027910   4.300089
    33  H    6.645255   5.775935   3.846437   3.380103   6.982088
    34  H    5.168831   4.235349   3.380218   3.845311   7.804093
    35  H    3.839407   3.378250   4.120323   4.937202   7.847555
    36  H    3.378280   3.841228   5.572725   6.374163   7.751246
    37  H    1.085733   2.125501   4.614387   5.646425   6.484505
    38  H    2.128121   1.085991   2.754862   4.033708   6.701522
    39  H    3.734289   2.614751   1.084800   2.120465   5.762590
    40  H    5.573581   4.692792   2.124730   1.085472   4.582480
    41  H    7.594260   7.570419   6.278342   5.360839   2.521691
    42  H    6.743187   5.939590   3.424482   2.185696   5.098598
                   26         27         28         29         30
    26  H    0.000000
    27  H    2.190534   0.000000
    28  H    4.020828   2.415209   0.000000
    29  H    5.737851   4.928405   4.303293   0.000000
    30  H    4.632455   4.299964   4.927093   2.393132   0.000000
    31  H    4.301899   4.765396   6.224529   4.566089   2.215050
    32  H    4.932523   6.229566   7.639382   6.026857   4.083868
    33  H    8.019006   8.973726   8.552281   6.872367   7.341464
    34  H    8.187330   8.572751   7.534650   5.889609   7.122889
    35  H    7.588392   7.446550   6.127753   4.134630   5.875462
    36  H    6.830494   6.128001   4.797464   2.067582   4.311531
    37  H    5.179438   4.261828   2.146224   4.759102   5.993245
    38  H    6.232550   6.068036   4.406413   5.982792   7.256442
    39  H    6.075603   6.638650   5.647066   6.776568   7.578835
    40  H    5.827638   7.122708   6.916914   7.618172   7.760019
    41  H    4.283487   6.179718   7.479719   6.956167   5.507169
    42  H    6.666502   8.101198   8.143173   7.492131   7.398998
                   31         32         33         34         35
    31  H    0.000000
    32  H    2.429219   0.000000
    33  H    7.873465   6.800321   0.000000
    34  H    8.289284   7.906087   2.420985   0.000000
    35  H    7.497119   7.762525   4.197719   2.165332   0.000000
    36  H    6.337874   7.332397   6.062067   4.469277   2.398254
    37  H    7.441699   8.412986   7.524450   6.172330   4.924254
    38  H    8.525215   8.877265   6.174337   4.793661   4.300916
    39  H    8.406970   8.179944   4.929841   4.303262   4.720702
    40  H    7.978443   7.107786   4.299857   4.929009   5.914195
    41  H    4.303528   2.526780   5.980390   7.365959   7.688893
    42  H    7.404219   6.011933   2.529276   4.299771   5.701337
                   36         37         38         39         40
    36  H    0.000000
    37  H    4.301891   0.000000
    38  H    4.926793   2.403442   0.000000
    39  H    5.898161   4.073083   2.097633   0.000000
    40  H    7.153588   5.896344   4.398415   2.394116   0.000000
    41  H    7.805305   7.879548   7.862934   6.713174   5.155022
    42  H    7.130417   7.343400   6.046654   4.283690   2.524824
                   41         42
    41  H    0.000000
    42  H    4.347672   0.000000
 Stoichiometry    C24H18
 Framework group  C1[X(C24H18)]
 Deg. of freedom   120
 Full point group                 C1      NOp   1
 Largest Abelian subgroup         C1      NOp   1
 Largest concise Abelian subgroup C1      NOp   1
                         Standard orientation:                         
 ---------------------------------------------------------------------
 Center     Atomic      Atomic             Coordinates (Angstroms)
 Number     Number       Type             X           Y           Z
 ---------------------------------------------------------------------
      1          6           0       -2.624978    3.140165   -0.033382
      2          6           0       -2.704850    2.464643    1.199771
      3          6           0       -3.132109    1.143235    1.266491
      4          6           0       -3.497120    0.437865    0.102984
      5          6           0       -3.051242   -0.983579   -0.012657
      6          6           0       -2.650232   -1.738643    1.110771
      7          6           0       -1.520828   -2.551950    1.059298
      8          6           0       -0.747971   -2.654044   -0.118895
      9          6           0       -1.399810   -2.235285   -1.297166
     10          6           0       -2.519484   -1.412874   -1.244930
     11          6           0       -3.782460    1.235999   -1.026948
     12          6           0       -3.353415    2.560431   -1.094575
     13          6           0        2.619863    3.143409   -0.090833
     14          6           0        3.288607    2.518604   -1.165691
     15          6           0        3.714665    1.195501   -1.070438
     16          6           0        3.492529    0.441414    0.103575
     17          6           0        3.045592   -0.984094    0.055776
     18          6           0        2.614088   -1.536562   -1.168322
     19          6           0        1.500286   -2.367336   -1.231520
     20          6           0        0.746735   -2.660445   -0.074889
     21          6           0        1.422489   -2.441922    1.144862
     22          6           0        2.554026   -1.634505    1.208024
     23          6           0        3.205001    1.199269    1.256932
     24          6           0        2.774236    2.517454    1.161622
     25          1           0       -2.225506    2.886531    2.077553
     26          1           0       -2.965805    0.607176    2.195182
     27          1           0       -3.122165   -1.574512    2.075908
     28          1           0       -1.159259   -2.979112    1.990280
     29          1           0       -0.927393   -2.373530   -2.263876
     30          1           0       -2.843798   -0.943373   -2.168366
     31          1           0       -4.207208    0.784579   -1.919886
     32          1           0       -3.456999    3.092068   -2.037291
     33          1           0        3.342143    3.010110   -2.133809
     34          1           0        4.081589    0.710580   -1.970861
     35          1           0        3.026733   -1.175646   -2.105368
     36          1           0        1.123535   -2.630800   -2.214859
     37          1           0        0.973145   -2.754161    2.082632
     38          1           0        2.941662   -1.379399    2.189877
     39          1           0        3.108850    0.711329    2.221017
     40          1           0        2.355993    2.977647    2.051310
     41          1           0       -2.177169    4.124541   -0.118789
     42          1           0        2.169923    4.125464   -0.189813
 ---------------------------------------------------------------------
 Rotational constants (GHZ):      0.3066381      0.1933313      0.1407664
 Standard basis: 6-31G(d) (6D, 7F)
 There are   396 symmetry adapted cartesian basis functions of A   symmetry.
 There are   396 symmetry adapted basis functions of A   symmetry.
   396 basis functions,   744 primitive gaussians,   396 cartesian basis functions
    81 alpha electrons       81 beta electrons
       nuclear repulsion energy      1795.2932500084 Hartrees.
 NAtoms=   42 NActive=   42 NUniq=   42 SFac= 1.00D+00 NAtFMM=   60 NAOKFM=F Big=F
 Integral buffers will be    131072 words long.
 Raffenetti 2 integral format.
 Two-electron integral symmetry is turned on.
 One-electron integrals computed using PRISM.
 NBasis=   396 RedAO= T EigKep=  4.19D-04  NBF=   396
 NBsUse=   396 1.00D-06 EigRej= -1.00D+00 NBFU=   396
 ExpMin= 1.61D-01 ExpMax= 3.05D+03 ExpMxC= 4.57D+02 IAcc=1 IRadAn=         1 AccDes= 0.00D+00
 Harris functional with IExCor=  402 and IRadAn=       1 diagonalized for initial guess.
 HarFok:  IExCor=  402 AccDes= 0.00D+00 IRadAn=         1 IDoV= 1 UseB2=F ITyADJ=14
 ICtDFT=  3500011 ScaDFX=  1.000000  1.000000  1.000000  1.000000
 FoFCou: FMM=F IPFlag=           0 FMFlag=      100000 FMFlg1=           0
         NFxFlg=           0 DoJE=T BraDBF=F KetDBF=T FulRan=T
         wScrn=  0.000000 ICntrl=     500 IOpCl=  0 I1Cent=   200000004 NGrid=           0
         NMat0=    1 NMatS0=      1 NMatT0=    0 NMatD0=    1 NMtDS0=    0 NMtDT0=    0
 Petite list used in FoFCou.
 Requested convergence on RMS density matrix=1.00D-08 within 128 cycles.
 Requested convergence on MAX density matrix=1.00D-06.
 Requested convergence on             energy=1.00D-06.
 No special actions if energy rises.
 Integral accuracy reduced to 1.0D-05 until final iterations.
 Initial convergence to 1.0D-05 achieved.  Increase integral accuracy.
 SCF Done:  E(RB3LYP) =  -925.293327509     A.U. after   14 cycles
            NFock= 14  Conv=0.81D-08     -V/T= 2.0100

 **********************************************************************

            Population analysis using the SCF density.

 **********************************************************************

 Orbital symmetries:
       Occupied  (A) (A) (A) (A) (A) (A) (A) (A) (A) (A) (A) (A)
                 (A) (A) (A) (A) (A) (A) (A) (A) (A) (A) (A) (A)
                 (A) (A) (A) (A) (A) (A) (A) (A) (A) (A) (A) (A)
                 (A) (A) (A) (A) (A) (A) (A) (A) (A) (A) (A) (A)
                 (A) (A) (A) (A) (A) (A) (A) (A) (A) (A) (A) (A)
                 (A) (A) (A) (A) (A) (A) (A) (A) (A) (A) (A) (A)
                 (A) (A) (A) (A) (A) (A) (A) (A) (A)
       Virtual   (A) (A) (A) (A) (A) (A) (A) (A) (A) (A) (A) (A)
                 (A) (A) (A) (A) (A) (A) (A) (A) (A) (A) (A) (A)
                 (A) (A) (A) (A) (A) (A) (A) (A) (A) (A) (A) (A)
                 (A) (A) (A) (A) (A) (A) (A) (A) (A) (A) (A) (A)
                 (A) (A) (A) (A) (A) (A) (A) (A) (A) (A) (A) (A)
                 (A) (A) (A) (A) (A) (A) (A) (A) (A) (A) (A) (A)
                 (A) (A) (A) (A) (A) (A) (A) (A) (A) (A) (A) (A)
                 (A) (A) (A) (A) (A) (A) (A) (A) (A) (A) (A) (A)
                 (A) (A) (A) (A) (A) (A) (A) (A) (A) (A) (A) (A)
                 (A) (A) (A) (A) (A) (A) (A) (A) (A) (A) (A) (A)
                 (A) (A) (A) (A) (A) (A) (A) (A) (A) (A) (A) (A)
                 (A) (A) (A) (A) (A) (A) (A) (A) (A) (A) (A) (A)
                 (A) (A) (A) (A) (A) (A) (A) (A) (A) (A) (A) (A)
                 (A) (A) (A) (A) (A) (A) (A) (A) (A) (A) (A) (A)
                 (A) (A) (A) (A) (A) (A) (A) (A) (A) (A) (A) (A)
                 (A) (A) (A) (A) (A) (A) (A) (A) (A) (A) (A) (A)
                 (A) (A) (A) (A) (A) (A) (A) (A) (A) (A) (A) (A)
                 (A) (A) (A) (A) (A) (A) (A) (A) (A) (A) (A) (A)
                 (A) (A) (A) (A) (A) (A) (A) (A) (A) (A) (A) (A)
                 (A) (A) (A) (A) (A) (A) (A) (A) (A) (A) (A) (A)
                 (A) (A) (A) (A) (A) (A) (A) (A) (A) (A) (A) (A)
                 (A) (A) (A) (A) (A) (A) (A) (A) (A) (A) (A) (A)
                 (A) (A) (A) (A) (A) (A) (A) (A) (A) (A) (A) (A)
                 (A) (A) (A) (A) (A) (A) (A) (A) (A) (A) (A) (A)
                 (A) (A) (A) (A) (A) (A) (A) (A) (A) (A) (A) (A)
                 (A) (A) (A) (A) (A) (A) (A) (A) (A) (A) (A) (A)
                 (A) (A) (A)
 The electronic state is 1-A.
 Alpha  occ. eigenvalues --  -10.20372 -10.20340 -10.20317 -10.20311 -10.20255
 Alpha  occ. eigenvalues --  -10.20203 -10.19156 -10.19125 -10.19093 -10.19070
 Alpha  occ. eigenvalues --  -10.19061 -10.19049 -10.19042 -10.19039 -10.19021
 Alpha  occ. eigenvalues --  -10.18980 -10.18949 -10.18948 -10.18896 -10.18892
 Alpha  occ. eigenvalues --  -10.18782 -10.18767 -10.18719 -10.18711  -0.87322
 Alpha  occ. eigenvalues --   -0.86355  -0.84919  -0.83654  -0.78811  -0.76097
 Alpha  occ. eigenvalues --   -0.75203  -0.74602  -0.73943  -0.73546  -0.72956
 Alpha  occ. eigenvalues --   -0.70028  -0.63498  -0.62451  -0.60796  -0.60749
 Alpha  occ. eigenvalues --   -0.58808  -0.58334  -0.57199  -0.56800  -0.53395
 Alpha  occ. eigenvalues --   -0.52157  -0.50209  -0.48364  -0.47933  -0.46828
 Alpha  occ. eigenvalues --   -0.44937  -0.44775  -0.44337  -0.43109  -0.42942
 Alpha  occ. eigenvalues --   -0.42628  -0.42048  -0.41965  -0.41338  -0.41207
 Alpha  occ. eigenvalues --   -0.40602  -0.39948  -0.39612  -0.37862  -0.37436
 Alpha  occ. eigenvalues --   -0.35806  -0.34406  -0.34164  -0.33815  -0.33052
 Alpha  occ. eigenvalues --   -0.32940  -0.32757  -0.31782  -0.28901  -0.25652
 Alpha  occ. eigenvalues --   -0.25578  -0.25000  -0.24407  -0.23919  -0.21925
 Alpha  occ. eigenvalues --   -0.18374
 Alpha virt. eigenvalues --   -0.05967  -0.02492  -0.01829  -0.00356   0.00796
 Alpha virt. eigenvalues --    0.01093   0.02460   0.03198   0.08285   0.08491
 Alpha virt. eigenvalues --    0.08780   0.10947   0.11202   0.11320   0.12413
 Alpha virt. eigenvalues --    0.13306   0.13519   0.13710   0.14049   0.14270
 Alpha virt. eigenvalues --    0.16225   0.16468   0.17780   0.18065   0.19377
 Alpha virt. eigenvalues --    0.21093   0.21441   0.23306   0.24201   0.25319
 Alpha virt. eigenvalues --    0.26650   0.26866   0.27021   0.27319   0.28269
 Alpha virt. eigenvalues --    0.28356   0.28800   0.30081   0.30151   0.31489
 Alpha virt. eigenvalues --    0.33812   0.34787   0.36111   0.36684   0.37012
 Alpha virt. eigenvalues --    0.38258   0.39203   0.39615   0.44214   0.45005
 Alpha virt. eigenvalues --    0.48826   0.49399   0.49753   0.51574   0.52488
 Alpha virt. eigenvalues --    0.52564   0.53158   0.53799   0.54287   0.54422
 Alpha virt. eigenvalues --    0.54930   0.55099   0.55804   0.56536   0.56862
 Alpha virt. eigenvalues --    0.57138   0.57258   0.57801   0.57930   0.58587
 Alpha virt. eigenvalues --    0.58904   0.59329   0.59693   0.59809   0.59984
 Alpha virt. eigenvalues --    0.60126   0.60251   0.60599   0.60684   0.61650
 Alpha virt. eigenvalues --    0.61871   0.62347   0.62465   0.62725   0.62805
 Alpha virt. eigenvalues --    0.62952   0.63456   0.63946   0.65006   0.65448
 Alpha virt. eigenvalues --    0.66318   0.66565   0.67687   0.68247   0.69100
 Alpha virt. eigenvalues --    0.69528   0.69844   0.70517   0.71726   0.73381
 Alpha virt. eigenvalues --    0.75271   0.77268   0.80028   0.81838   0.81945
 Alpha virt. eigenvalues --    0.82654   0.82925   0.83010   0.83430   0.84312
 Alpha virt. eigenvalues --    0.84470   0.84616   0.85040   0.86590   0.87827
 Alpha virt. eigenvalues --    0.88664   0.89098   0.89398   0.90851   0.91032
 Alpha virt. eigenvalues --    0.91830   0.92343   0.92403   0.92688   0.92912
 Alpha virt. eigenvalues --    0.93075   0.93631   0.93821   0.94194   0.94392
 Alpha virt. eigenvalues --    0.97670   0.98012   0.98312   0.99578   1.00031
 Alpha virt. eigenvalues --    1.01641   1.02335   1.02828   1.03063   1.03360
 Alpha virt. eigenvalues --    1.05103   1.05479   1.06395   1.07850   1.09140
 Alpha virt. eigenvalues --    1.11040   1.12855   1.13989   1.15344   1.15862
 Alpha virt. eigenvalues --    1.16482   1.18134   1.19117   1.19825   1.21383
 Alpha virt. eigenvalues --    1.21395   1.23928   1.26554   1.28248   1.30057
 Alpha virt. eigenvalues --    1.32218   1.32876   1.34532   1.34816   1.36747
 Alpha virt. eigenvalues --    1.37896   1.38989   1.39829   1.42296   1.43122
 Alpha virt. eigenvalues --    1.44271   1.45012   1.46404   1.48600   1.49478
 Alpha virt. eigenvalues --    1.49722   1.50612   1.51116   1.51723   1.52471
 Alpha virt. eigenvalues --    1.52930   1.54186   1.57524   1.59764   1.60182
 Alpha virt. eigenvalues --    1.61756   1.62513   1.62718   1.63902   1.66271
 Alpha virt. eigenvalues --    1.67518   1.73483   1.75180   1.78066   1.79481
 Alpha virt. eigenvalues --    1.80082   1.81079   1.82516   1.83938   1.85992
 Alpha virt. eigenvalues --    1.86150   1.87456   1.87617   1.89533   1.89730
 Alpha virt. eigenvalues --    1.90381   1.93952   1.98179   1.98401   1.98798
 Alpha virt. eigenvalues --    1.99584   2.00067   2.00380   2.01084   2.01235
 Alpha virt. eigenvalues --    2.01770   2.02713   2.02900   2.04523   2.06206
 Alpha virt. eigenvalues --    2.08579   2.09090   2.10052   2.10306   2.10600
 Alpha virt. eigenvalues --    2.11652   2.14722   2.16269   2.17328   2.18237
 Alpha virt. eigenvalues --    2.19000   2.20104   2.20691   2.21803   2.22056
 Alpha virt. eigenvalues --    2.22867   2.24169   2.24899   2.25478   2.28457
 Alpha virt. eigenvalues --    2.29391   2.29477   2.33785   2.36200   2.36835
 Alpha virt. eigenvalues --    2.38062   2.38292   2.40804   2.41727   2.47463
 Alpha virt. eigenvalues --    2.48197   2.50799   2.52719   2.53700   2.54110
 Alpha virt. eigenvalues --    2.55507   2.57167   2.57564   2.58956   2.59422
 Alpha virt. eigenvalues --    2.61023   2.62254   2.63224   2.63793   2.66433
 Alpha virt. eigenvalues --    2.66600   2.70182   2.70678   2.71930   2.73658
 Alpha virt. eigenvalues --    2.74323   2.75004   2.76185   2.76829   2.77089
 Alpha virt. eigenvalues --    2.77846   2.77965   2.81543   2.82019   2.86627
 Alpha virt. eigenvalues --    2.87107   2.89850   2.94639   2.95908   3.07930
 Alpha virt. eigenvalues --    3.15632   3.22365   3.23266   3.30202   3.37312
 Alpha virt. eigenvalues --    3.43367   4.06357   4.07218   4.07839   4.09703
 Alpha virt. eigenvalues --    4.09993   4.10941   4.12011   4.12838   4.14133
 Alpha virt. eigenvalues --    4.16172   4.21617   4.27195   4.27799   4.31940
 Alpha virt. eigenvalues --    4.34587   4.37815   4.38929   4.40442   4.43801
 Alpha virt. eigenvalues --    4.46930   4.56166   4.64381   4.71868   4.79490
          Condensed to atoms (all electrons):
               1          2          3          4          5          6
     1  C    4.876988   0.535892  -0.036397  -0.032039   0.000314   0.000036
     2  C    0.535892   4.881512   0.524039  -0.027121   0.006537   0.000330
     3  C   -0.036397   0.524039   5.003011   0.534866  -0.053057  -0.022816
     4  C   -0.032039  -0.027121   0.534866   4.761420   0.372472  -0.048330
     5  C    0.000314   0.006537  -0.053057   0.372472   4.782512   0.502018
     6  C    0.000036   0.000330  -0.022816  -0.048330   0.502018   5.037640
     7  C    0.000001  -0.000048   0.000920   0.003211  -0.029960   0.520677
     8  C   -0.000003  -0.000011   0.000234   0.000620  -0.036270  -0.031304
     9  C   -0.000007   0.000003   0.000210   0.005705  -0.034293  -0.039494
    10  C    0.000093   0.000191   0.001431  -0.049006   0.533896  -0.066455
    11  C   -0.036298  -0.046936  -0.065857   0.503140  -0.050985   0.007969
    12  C    0.534339  -0.021281  -0.043710  -0.022498   0.003939  -0.000075
    13  C   -0.000019   0.000001   0.000001  -0.000000  -0.000000  -0.000000
    14  C    0.000000   0.000000   0.000000  -0.000000  -0.000000  -0.000000
    15  C    0.000000  -0.000000  -0.000000  -0.000000   0.000000   0.000000
    16  C   -0.000000   0.000000   0.000000   0.000000   0.000000  -0.000000
    17  C   -0.000000  -0.000000   0.000001   0.000000  -0.000006  -0.000001
    18  C   -0.000000  -0.000000   0.000000  -0.000000  -0.000001   0.000005
    19  C    0.000000   0.000000  -0.000002  -0.000002   0.000115  -0.000032
    20  C    0.000000  -0.000000  -0.000009   0.000030   0.000792   0.004078
    21  C    0.000000   0.000000  -0.000008  -0.000005   0.000127   0.000638
    22  C   -0.000000   0.000000   0.000000  -0.000000  -0.000005  -0.000054
    23  C    0.000001  -0.000000  -0.000001   0.000000   0.000000   0.000000
    24  C    0.000000  -0.000001  -0.000000   0.000000  -0.000000   0.000000
    25  H   -0.044622   0.359862  -0.042115   0.004512  -0.000168  -0.000019
    26  H    0.004889  -0.044646   0.348967  -0.038275  -0.014655   0.009808
    27  H   -0.000005   0.000198   0.001251  -0.007921  -0.034777   0.349928
    28  H   -0.000000  -0.000001   0.000011  -0.000108   0.003611  -0.041469
    29  H   -0.000000   0.000000   0.000003  -0.000157   0.004367   0.000438
    30  H    0.000005  -0.000024  -0.000178  -0.013341  -0.036165   0.006336
    31  H    0.004782   0.000305   0.005786  -0.037840  -0.008436  -0.000200
    32  H   -0.044403   0.004842   0.000554   0.004001  -0.000122   0.000003
    33  H   -0.000000   0.000000   0.000000  -0.000000  -0.000000  -0.000000
    34  H    0.000000  -0.000000  -0.000000   0.000000   0.000000   0.000000
    35  H   -0.000000   0.000000   0.000000  -0.000000  -0.000000  -0.000000
    36  H    0.000000   0.000000  -0.000000  -0.000000  -0.000002   0.000002
    37  H    0.000000   0.000000  -0.000000  -0.000000  -0.000002   0.000278
    38  H   -0.000000   0.000000   0.000000  -0.000000  -0.000000  -0.000001
    39  H    0.000000  -0.000000  -0.000000  -0.000000   0.000000   0.000000
    40  H    0.000000   0.000002   0.000000   0.000000  -0.000000   0.000000
    41  H    0.359695  -0.042785   0.005140   0.000585   0.000005  -0.000001
    42  H    0.000009  -0.000000  -0.000000  -0.000000   0.000000   0.000000
               7          8          9         10         11         12
     1  C    0.000001  -0.000003  -0.000007   0.000093  -0.036298   0.534339
     2  C   -0.000048  -0.000011   0.000003   0.000191  -0.046936  -0.021281
     3  C    0.000920   0.000234   0.000210   0.001431  -0.065857  -0.043710
     4  C    0.003211   0.000620   0.005705  -0.049006   0.503140  -0.022498
     5  C   -0.029960  -0.036270  -0.034293   0.533896  -0.050985   0.003939
     6  C    0.520677  -0.031304  -0.039494  -0.066455   0.007969  -0.000075
     7  C    5.030335   0.513777  -0.072286  -0.038078  -0.000086   0.000002
     8  C    0.513777   4.759265   0.525101  -0.031990   0.000094   0.000000
     9  C   -0.072286   0.525101   5.014579   0.524491   0.000391  -0.000048
    10  C   -0.038078  -0.031990   0.524491   4.991806  -0.022511   0.000930
    11  C   -0.000086   0.000094   0.000391  -0.022511   5.047591   0.522238
    12  C    0.000002   0.000000  -0.000048   0.000930   0.522238   4.878692
    13  C    0.000000   0.000000   0.000000  -0.000000   0.000000  -0.000000
    14  C    0.000000   0.000000   0.000000   0.000000   0.000000  -0.000000
    15  C   -0.000000  -0.000003  -0.000002   0.000000  -0.000000   0.000000
    16  C   -0.000003   0.000027  -0.000004  -0.000000  -0.000000  -0.000000
    17  C    0.000105   0.000804   0.000139  -0.000004   0.000000  -0.000000
    18  C   -0.000024   0.003827   0.000773  -0.000071   0.000000   0.000000
    19  C    0.007292  -0.048599  -0.023478   0.000542  -0.000001   0.000000
    20  C   -0.049602   0.378525  -0.048771   0.004701  -0.000002   0.000000
    21  C   -0.021629  -0.049329   0.005440   0.000039  -0.000000   0.000000
    22  C    0.000423   0.004798   0.000040   0.000008   0.000000  -0.000000
    23  C   -0.000004  -0.000007  -0.000002   0.000000  -0.000000   0.000000
    24  C    0.000000  -0.000000   0.000000  -0.000000  -0.000000   0.000000
    25  H   -0.000001  -0.000000   0.000000   0.000002   0.000638   0.004736
    26  H    0.000403   0.000013  -0.000016  -0.000234   0.006333   0.000341
    27  H   -0.041324   0.003660   0.000429   0.005705  -0.000226   0.000006
    28  H    0.347940  -0.032999   0.005855   0.000452   0.000003  -0.000000
    29  H    0.006099  -0.034618   0.348013  -0.042513  -0.000025  -0.000001
    30  H    0.000389   0.004138  -0.041901   0.348445   0.010006   0.000277
    31  H    0.000004   0.000001   0.000228   0.001156   0.350380  -0.044669
    32  H   -0.000000  -0.000000  -0.000001   0.000012  -0.041238   0.359794
    33  H    0.000000  -0.000000   0.000000  -0.000000   0.000000  -0.000000
    34  H   -0.000000  -0.000000  -0.000000   0.000000  -0.000000   0.000000
    35  H    0.000004  -0.000120   0.000001  -0.000001   0.000000  -0.000000
    36  H   -0.000260  -0.011305   0.003143   0.000349   0.000000   0.000000
    37  H    0.006419  -0.012436  -0.000236  -0.000005   0.000000   0.000000
    38  H   -0.000011  -0.000135   0.000004   0.000000   0.000000  -0.000000
    39  H    0.000000  -0.000001  -0.000000   0.000000  -0.000000   0.000000
    40  H   -0.000000  -0.000000   0.000000  -0.000000  -0.000000   0.000000
    41  H    0.000000   0.000000   0.000000  -0.000003   0.004953  -0.042439
    42  H   -0.000000  -0.000000  -0.000000   0.000000  -0.000000   0.000000
              13         14         15         16         17         18
     1  C   -0.000019   0.000000   0.000000  -0.000000  -0.000000  -0.000000
     2  C    0.000001   0.000000  -0.000000   0.000000  -0.000000  -0.000000
     3  C    0.000001   0.000000  -0.000000   0.000000   0.000001   0.000000
     4  C   -0.000000  -0.000000  -0.000000   0.000000   0.000000  -0.000000
     5  C   -0.000000  -0.000000   0.000000   0.000000  -0.000006  -0.000001
     6  C   -0.000000  -0.000000   0.000000  -0.000000  -0.000001   0.000005
     7  C    0.000000   0.000000  -0.000000  -0.000003   0.000105  -0.000024
     8  C    0.000000   0.000000  -0.000003   0.000027   0.000804   0.003827
     9  C    0.000000   0.000000  -0.000002  -0.000004   0.000139   0.000773
    10  C   -0.000000   0.000000   0.000000  -0.000000  -0.000004  -0.000071
    11  C    0.000000   0.000000  -0.000000  -0.000000   0.000000   0.000000
    12  C   -0.000000  -0.000000   0.000000  -0.000000  -0.000000   0.000000
    13  C    4.878715   0.534167  -0.036294  -0.031759   0.000355   0.000056
    14  C    0.534167   4.875853   0.525272  -0.023645   0.004524   0.000789
    15  C   -0.036294   0.525272   5.043615   0.509685  -0.051820  -0.022645
    16  C   -0.031759  -0.023645   0.509685   4.752969   0.373043  -0.048071
    17  C    0.000355   0.004524  -0.051820   0.373043   4.776805   0.529353
    18  C    0.000056   0.000789  -0.022645  -0.048071   0.529353   5.001033
    19  C   -0.000004  -0.000056   0.000435   0.005228  -0.033627   0.524913
    20  C   -0.000003  -0.000000   0.000107   0.000707  -0.036350  -0.031209
    21  C    0.000000   0.000003  -0.000042   0.003591  -0.031266  -0.037090
    22  C    0.000044  -0.000040   0.007764  -0.048043   0.508031  -0.071064
    23  C   -0.036775  -0.043849  -0.070314   0.530633  -0.051896   0.004012
    24  C    0.534799  -0.021339  -0.046512  -0.026451   0.006077   0.000101
    25  H    0.000001   0.000000  -0.000000   0.000000   0.000000   0.000000
    26  H    0.000000   0.000000  -0.000000  -0.000000   0.000000   0.000000
    27  H   -0.000000  -0.000000   0.000000   0.000000  -0.000000  -0.000000
    28  H    0.000000   0.000000  -0.000000  -0.000000  -0.000001   0.000001
    29  H    0.000000   0.000000   0.000000  -0.000001  -0.000006   0.000419
    30  H   -0.000000  -0.000000  -0.000000  -0.000000  -0.000000  -0.000001
    31  H    0.000000   0.000000  -0.000000  -0.000000   0.000000   0.000000
    32  H   -0.000000  -0.000000   0.000000  -0.000000  -0.000000  -0.000000
    33  H   -0.044474   0.360021  -0.041519   0.004061  -0.000129   0.000008
    34  H    0.004782  -0.045076   0.349514  -0.036340  -0.010094   0.002143
    35  H    0.000000   0.000271   0.007835  -0.012794  -0.034408   0.348120
    36  H   -0.000000  -0.000001  -0.000016  -0.000142   0.004070  -0.042340
    37  H   -0.000000  -0.000000   0.000003  -0.000113   0.003790   0.000427
    38  H   -0.000005   0.000004  -0.000254  -0.009885  -0.033533   0.005780
    39  H    0.004938   0.000358   0.006254  -0.037096  -0.014668  -0.000256
    40  H   -0.044685   0.004755   0.000627   0.004406  -0.000157   0.000003
    41  H    0.000009   0.000000  -0.000000  -0.000000   0.000000   0.000000
    42  H    0.359598  -0.042395   0.004962   0.000597   0.000005  -0.000002
              19         20         21         22         23         24
     1  C    0.000000   0.000000   0.000000  -0.000000   0.000001   0.000000
     2  C    0.000000  -0.000000   0.000000   0.000000  -0.000000  -0.000001
     3  C   -0.000002  -0.000009  -0.000008   0.000000  -0.000001  -0.000000
     4  C   -0.000002   0.000030  -0.000005  -0.000000   0.000000   0.000000
     5  C    0.000115   0.000792   0.000127  -0.000005   0.000000  -0.000000
     6  C   -0.000032   0.004078   0.000638  -0.000054   0.000000   0.000000
     7  C    0.007292  -0.049602  -0.021629   0.000423  -0.000004   0.000000
     8  C   -0.048599   0.378525  -0.049329   0.004798  -0.000007  -0.000000
     9  C   -0.023478  -0.048771   0.005440   0.000040  -0.000002   0.000000
    10  C    0.000542   0.004701   0.000039   0.000008   0.000000  -0.000000
    11  C   -0.000001  -0.000002  -0.000000   0.000000  -0.000000  -0.000000
    12  C    0.000000   0.000000   0.000000  -0.000000   0.000000   0.000000
    13  C   -0.000004  -0.000003   0.000000   0.000044  -0.036775   0.534799
    14  C   -0.000056  -0.000000   0.000003  -0.000040  -0.043849  -0.021339
    15  C    0.000435   0.000107  -0.000042   0.007764  -0.070314  -0.046512
    16  C    0.005228   0.000707   0.003591  -0.048043   0.530633  -0.026451
    17  C   -0.033627  -0.036350  -0.031266   0.508031  -0.051896   0.006077
    18  C    0.524913  -0.031209  -0.037090  -0.071064   0.004012   0.000101
    19  C    5.030265   0.513568  -0.072503  -0.039833   0.000118   0.000005
    20  C    0.513568   4.761023   0.524923  -0.032666   0.000172  -0.000006
    21  C   -0.072503   0.524923   5.010443   0.524559   0.000895  -0.000066
    22  C   -0.039833  -0.032666   0.524559   5.035141  -0.024083   0.000442
    23  C    0.000118   0.000172   0.000895  -0.024083   5.013867   0.525451
    24  C    0.000005  -0.000006  -0.000066   0.000442   0.525451   4.880264
    25  H   -0.000000  -0.000000  -0.000000   0.000000  -0.000000   0.000003
    26  H   -0.000000  -0.000002   0.000001  -0.000000  -0.000000  -0.000000
    27  H    0.000003  -0.000121   0.000002  -0.000001   0.000000   0.000000
    28  H   -0.000242  -0.010564   0.003443   0.000244  -0.000000   0.000000
    29  H    0.006803  -0.013552  -0.000248  -0.000004  -0.000000   0.000000
    30  H   -0.000015  -0.000137   0.000004   0.000000   0.000000  -0.000000
    31  H   -0.000000  -0.000000  -0.000000   0.000000  -0.000000   0.000000
    32  H    0.000000  -0.000000   0.000000  -0.000000   0.000000   0.000000
    33  H   -0.000001  -0.000000  -0.000000   0.000003   0.000566   0.004834
    34  H    0.000263   0.000000   0.000004  -0.000227   0.005832   0.000333
    35  H   -0.042087   0.003893   0.000414   0.006240  -0.000213  -0.000011
    36  H    0.348649  -0.033347   0.005859   0.000435   0.000004   0.000000
    37  H    0.006136  -0.033655   0.347826  -0.042144   0.000008  -0.000001
    38  H    0.000427   0.003915  -0.041990   0.349106   0.002023   0.000281
    39  H   -0.000005   0.000001   0.000462   0.007951   0.348548  -0.045188
    40  H    0.000000  -0.000000  -0.000001  -0.000013  -0.042175   0.360102
    41  H   -0.000000  -0.000000  -0.000000   0.000000  -0.000000  -0.000000
    42  H    0.000000   0.000000   0.000000  -0.000001   0.005114  -0.042682
              25         26         27         28         29         30
     1  C   -0.044622   0.004889  -0.000005  -0.000000  -0.000000   0.000005
     2  C    0.359862  -0.044646   0.000198  -0.000001   0.000000  -0.000024
     3  C   -0.042115   0.348967   0.001251   0.000011   0.000003  -0.000178
     4  C    0.004512  -0.038275  -0.007921  -0.000108  -0.000157  -0.013341
     5  C   -0.000168  -0.014655  -0.034777   0.003611   0.004367  -0.036165
     6  C   -0.000019   0.009808   0.349928  -0.041469   0.000438   0.006336
     7  C   -0.000001   0.000403  -0.041324   0.347940   0.006099   0.000389
     8  C   -0.000000   0.000013   0.003660  -0.032999  -0.034618   0.004138
     9  C    0.000000  -0.000016   0.000429   0.005855   0.348013  -0.041901
    10  C    0.000002  -0.000234   0.005705   0.000452  -0.042513   0.348445
    11  C    0.000638   0.006333  -0.000226   0.000003  -0.000025   0.010006
    12  C    0.004736   0.000341   0.000006  -0.000000  -0.000001   0.000277
    13  C    0.000001   0.000000  -0.000000   0.000000   0.000000  -0.000000
    14  C    0.000000   0.000000  -0.000000   0.000000   0.000000  -0.000000
    15  C   -0.000000  -0.000000   0.000000  -0.000000   0.000000  -0.000000
    16  C    0.000000  -0.000000   0.000000  -0.000000  -0.000001  -0.000000
    17  C    0.000000   0.000000  -0.000000  -0.000001  -0.000006  -0.000000
    18  C    0.000000   0.000000  -0.000000   0.000001   0.000419  -0.000001
    19  C   -0.000000  -0.000000   0.000003  -0.000242   0.006803  -0.000015
    20  C   -0.000000  -0.000002  -0.000121  -0.010564  -0.013552  -0.000137
    21  C   -0.000000   0.000001   0.000002   0.003443  -0.000248   0.000004
    22  C    0.000000  -0.000000  -0.000001   0.000244  -0.000004   0.000000
    23  C   -0.000000  -0.000000   0.000000  -0.000000  -0.000000   0.000000
    24  C    0.000003  -0.000000   0.000000   0.000000   0.000000  -0.000000
    25  H    0.601480  -0.007405   0.000006   0.000000   0.000000   0.000000
    26  H   -0.007405   0.603572   0.002919   0.000022   0.000000  -0.000004
    27  H    0.000006   0.002919   0.591285  -0.006788   0.000014  -0.000200
    28  H    0.000000   0.000022  -0.006788   0.593937  -0.000201   0.000014
    29  H    0.000000   0.000000   0.000014  -0.000201   0.598277  -0.007278
    30  H    0.000000  -0.000004  -0.000200   0.000014  -0.007278   0.594826
    31  H    0.000015  -0.000191   0.000001   0.000000   0.000005   0.003226
    32  H   -0.000208   0.000014   0.000000   0.000000   0.000000   0.000018
    33  H   -0.000000   0.000000  -0.000000   0.000000  -0.000000   0.000000
    34  H   -0.000000  -0.000000   0.000000  -0.000000   0.000000   0.000000
    35  H    0.000000   0.000000   0.000000   0.000000   0.000018   0.000000
    36  H    0.000000  -0.000000   0.000000   0.000003   0.003659   0.000010
    37  H   -0.000000   0.000001   0.000009   0.003577   0.000001   0.000000
    38  H    0.000000  -0.000000   0.000000   0.000007   0.000000   0.000000
    39  H   -0.000000   0.000000  -0.000000   0.000000  -0.000000   0.000000
    40  H    0.000008  -0.000000   0.000000  -0.000000   0.000000   0.000000
    41  H   -0.004784  -0.000157  -0.000000  -0.000000  -0.000000  -0.000000
    42  H   -0.000000  -0.000000   0.000000  -0.000000  -0.000000   0.000000
              31         32         33         34         35         36
     1  C    0.004782  -0.044403  -0.000000   0.000000  -0.000000   0.000000
     2  C    0.000305   0.004842   0.000000  -0.000000   0.000000   0.000000
     3  C    0.005786   0.000554   0.000000  -0.000000   0.000000  -0.000000
     4  C   -0.037840   0.004001  -0.000000   0.000000  -0.000000  -0.000000
     5  C   -0.008436  -0.000122  -0.000000   0.000000  -0.000000  -0.000002
     6  C   -0.000200   0.000003  -0.000000   0.000000  -0.000000   0.000002
     7  C    0.000004  -0.000000   0.000000  -0.000000   0.000004  -0.000260
     8  C    0.000001  -0.000000  -0.000000  -0.000000  -0.000120  -0.011305
     9  C    0.000228  -0.000001   0.000000  -0.000000   0.000001   0.003143
    10  C    0.001156   0.000012  -0.000000   0.000000  -0.000001   0.000349
    11  C    0.350380  -0.041238   0.000000  -0.000000   0.000000   0.000000
    12  C   -0.044669   0.359794  -0.000000   0.000000  -0.000000   0.000000
    13  C    0.000000  -0.000000  -0.044474   0.004782   0.000000  -0.000000
    14  C    0.000000  -0.000000   0.360021  -0.045076   0.000271  -0.000001
    15  C   -0.000000   0.000000  -0.041519   0.349514   0.007835  -0.000016
    16  C   -0.000000  -0.000000   0.004061  -0.036340  -0.012794  -0.000142
    17  C    0.000000  -0.000000  -0.000129  -0.010094  -0.034408   0.004070
    18  C    0.000000  -0.000000   0.000008   0.002143   0.348120  -0.042340
    19  C   -0.000000   0.000000  -0.000001   0.000263  -0.042087   0.348649
    20  C   -0.000000  -0.000000  -0.000000   0.000000   0.003893  -0.033347
    21  C   -0.000000   0.000000  -0.000000   0.000004   0.000414   0.005859
    22  C    0.000000  -0.000000   0.000003  -0.000227   0.006240   0.000435
    23  C   -0.000000   0.000000   0.000566   0.005832  -0.000213   0.000004
    24  C    0.000000   0.000000   0.004834   0.000333  -0.000011   0.000000
    25  H    0.000015  -0.000208  -0.000000  -0.000000   0.000000   0.000000
    26  H   -0.000191   0.000014   0.000000  -0.000000   0.000000  -0.000000
    27  H    0.000001   0.000000  -0.000000   0.000000   0.000000   0.000000
    28  H    0.000000   0.000000   0.000000  -0.000000   0.000000   0.000003
    29  H    0.000005   0.000000  -0.000000   0.000000   0.000018   0.003659
    30  H    0.003226   0.000018   0.000000   0.000000   0.000000   0.000010
    31  H    0.599655  -0.006975   0.000000  -0.000000   0.000000   0.000000
    32  H   -0.006975   0.599575  -0.000000   0.000000   0.000000   0.000000
    33  H    0.000000  -0.000000   0.599839  -0.007056   0.000014   0.000000
    34  H   -0.000000   0.000000  -0.007056   0.600809   0.003476   0.000007
    35  H    0.000000   0.000000   0.000014   0.003476   0.595657  -0.007093
    36  H    0.000000   0.000000   0.000000   0.000007  -0.007093   0.594186
    37  H   -0.000000   0.000000   0.000000   0.000000   0.000014  -0.000202
    38  H    0.000000   0.000000   0.000000   0.000002  -0.000201   0.000014
    39  H   -0.000000   0.000000   0.000014  -0.000193  -0.000001   0.000000
    40  H    0.000000  -0.000000  -0.000209   0.000015   0.000000   0.000000
    41  H   -0.000149  -0.004720  -0.000000  -0.000000   0.000000  -0.000000
    42  H   -0.000000  -0.000000  -0.004685  -0.000151  -0.000000  -0.000000
              37         38         39         40         41         42
     1  C    0.000000  -0.000000   0.000000   0.000000   0.359695   0.000009
     2  C    0.000000   0.000000  -0.000000   0.000002  -0.042785  -0.000000
     3  C   -0.000000   0.000000  -0.000000   0.000000   0.005140  -0.000000
     4  C   -0.000000  -0.000000  -0.000000   0.000000   0.000585  -0.000000
     5  C   -0.000002  -0.000000   0.000000  -0.000000   0.000005   0.000000
     6  C    0.000278  -0.000001   0.000000   0.000000  -0.000001   0.000000
     7  C    0.006419  -0.000011   0.000000  -0.000000   0.000000  -0.000000
     8  C   -0.012436  -0.000135  -0.000001  -0.000000   0.000000  -0.000000
     9  C   -0.000236   0.000004  -0.000000   0.000000   0.000000  -0.000000
    10  C   -0.000005   0.000000   0.000000  -0.000000  -0.000003   0.000000
    11  C    0.000000   0.000000  -0.000000  -0.000000   0.004953  -0.000000
    12  C    0.000000  -0.000000   0.000000   0.000000  -0.042439   0.000000
    13  C   -0.000000  -0.000005   0.004938  -0.044685   0.000009   0.359598
    14  C   -0.000000   0.000004   0.000358   0.004755   0.000000  -0.042395
    15  C    0.000003  -0.000254   0.006254   0.000627  -0.000000   0.004962
    16  C   -0.000113  -0.009885  -0.037096   0.004406  -0.000000   0.000597
    17  C    0.003790  -0.033533  -0.014668  -0.000157   0.000000   0.000005
    18  C    0.000427   0.005780  -0.000256   0.000003   0.000000  -0.000002
    19  C    0.006136   0.000427  -0.000005   0.000000  -0.000000   0.000000
    20  C   -0.033655   0.003915   0.000001  -0.000000  -0.000000   0.000000
    21  C    0.347826  -0.041990   0.000462  -0.000001  -0.000000   0.000000
    22  C   -0.042144   0.349106   0.007951  -0.000013   0.000000  -0.000001
    23  C    0.000008   0.002023   0.348548  -0.042175  -0.000000   0.005114
    24  C   -0.000001   0.000281  -0.045188   0.360102  -0.000000  -0.042682
    25  H   -0.000000   0.000000  -0.000000   0.000008  -0.004784  -0.000000
    26  H    0.000001  -0.000000   0.000000  -0.000000  -0.000157  -0.000000
    27  H    0.000009   0.000000  -0.000000   0.000000  -0.000000   0.000000
    28  H    0.003577   0.000007   0.000000  -0.000000  -0.000000  -0.000000
    29  H    0.000001   0.000000  -0.000000   0.000000  -0.000000  -0.000000
    30  H    0.000000   0.000000   0.000000   0.000000  -0.000000   0.000000
    31  H   -0.000000   0.000000  -0.000000   0.000000  -0.000149  -0.000000
    32  H    0.000000   0.000000   0.000000  -0.000000  -0.004720  -0.000000
    33  H    0.000000   0.000000   0.000014  -0.000209  -0.000000  -0.004685
    34  H    0.000000   0.000002  -0.000193   0.000015  -0.000000  -0.000151
    35  H    0.000014  -0.000201  -0.000001   0.000000   0.000000  -0.000000
    36  H   -0.000202   0.000014   0.000000   0.000000  -0.000000  -0.000000
    37  H    0.596974  -0.007005   0.000024   0.000000  -0.000000  -0.000000
    38  H   -0.007005   0.592527   0.003294   0.000010   0.000000  -0.000000
    39  H    0.000024   0.003294   0.606056  -0.007494  -0.000000  -0.000158
    40  H    0.000000   0.000010  -0.007494   0.601805  -0.000000  -0.004745
    41  H   -0.000000   0.000000  -0.000000  -0.000000   0.593226   0.000014
    42  H   -0.000000  -0.000000  -0.000158  -0.004745   0.000014   0.593037
 Mulliken charges:
               1
     1  C   -0.123253
     2  C   -0.130861
     3  C   -0.162274
     4  C    0.086082
     5  C    0.088197
     6  C   -0.189933
     7  C   -0.184685
     8  C    0.094247
     9  C   -0.174004
    10  C   -0.163378
    11  C   -0.189571
    12  C   -0.130573
    13  C   -0.123450
    14  C   -0.129617
    15  C   -0.186651
    16  C    0.089398
    17  C    0.090863
    18  C   -0.168988
    19  C   -0.184277
    20  C    0.093563
    21  C   -0.174493
    22  C   -0.187050
    23  C   -0.167926
    24  C   -0.130435
    25  H    0.128058
    26  H    0.128303
    27  H    0.135945
    28  H    0.133253
[...]
    28  H   -0.000000  -0.000000   0.000000  -0.000000  -0.000007  -0.000008
    29  H   -0.000000  -0.000000  -0.000000  -0.000000  -0.000007  -0.000030
    30  H    0.000000  -0.000000  -0.000000  -0.000000  -0.000000  -0.000000
    31  H    0.000000   0.000000  -0.000000  -0.000000   0.000000  -0.000000
    32  H    0.000000   0.000000   0.000000   0.000000  -0.000000   0.000000
    33  H   -0.043085   0.356938  -0.038882   0.003437  -0.000180  -0.000002
    34  H    0.004741  -0.044244   0.350946  -0.042281  -0.009666   0.005393
    35  H   -0.000006  -0.000047   0.005532  -0.009384  -0.040957   0.348366
    36  H   -0.000000  -0.000000  -0.000002  -0.000170   0.003345  -0.039662
    37  H   -0.000000  -0.000000   0.000002  -0.000170   0.003345   0.000524
    38  H   -0.000006  -0.000008  -0.000002  -0.009383  -0.040958   0.006288
    39  H    0.004742   0.000312   0.006310  -0.042281  -0.009663  -0.000002
    40  H   -0.043085   0.004586   0.000839   0.003437  -0.000180   0.000001
    41  H    0.000000   0.000000   0.000000   0.000000   0.000000  -0.000000
    42  H    0.358995  -0.043169   0.004782   0.000608   0.000004   0.000000
              19         20         21         22         23         24
     1  C   -0.000000   0.000000  -0.000000  -0.000000   0.000000   0.000000
     2  C    0.000000  -0.000000   0.000000  -0.000000   0.000000   0.000000
     3  C    0.000000   0.000000  -0.000000   0.000000   0.000000   0.000000
     4  C    0.000000   0.000003   0.000000  -0.000000  -0.000000   0.000000
     5  C    0.000003   0.000689   0.000003  -0.000000  -0.000000  -0.000000
     6  C   -0.000173   0.005988   0.000340  -0.000002   0.000000   0.000000
     7  C    0.005552  -0.047632  -0.012686   0.000341  -0.000000   0.000000
     8  C   -0.047980   0.345350  -0.047984   0.006002  -0.000000  -0.000000
     9  C   -0.012680  -0.047624   0.005554  -0.000169  -0.000000   0.000000
    10  C    0.000340   0.005987  -0.000173   0.000002   0.000000  -0.000000
    11  C   -0.000000   0.000000   0.000000   0.000000   0.000000   0.000000
    12  C    0.000000  -0.000000   0.000000   0.000000   0.000000   0.000000
    13  C   -0.000000   0.000000  -0.000000   0.000003  -0.037433   0.548961
    14  C   -0.000002  -0.000000   0.000002  -0.000173  -0.043779  -0.026392
    15  C    0.000357  -0.000001  -0.000174   0.005483  -0.059823  -0.043782
    16  C    0.006010   0.000660   0.006010  -0.047970   0.523028  -0.014394
    17  C   -0.021300  -0.023814  -0.021298   0.521034  -0.047071   0.005971
    18  C    0.477075  -0.020705  -0.047703  -0.051051   0.005484  -0.000173
    19  C    5.032123   0.520843  -0.052435  -0.047701  -0.000174   0.000002
    20  C    0.520843   4.759778   0.520843  -0.020707  -0.000001  -0.000000
    21  C   -0.052435   0.520843   5.032127   0.477074   0.000356  -0.000002
    22  C   -0.047701  -0.020707   0.477074   5.030019  -0.012672   0.000342
    23  C   -0.000174  -0.000001   0.000356  -0.012672   5.001224   0.514915
    24  C    0.000002  -0.000000  -0.000002   0.000342   0.514915   4.873888
    25  H   -0.000000  -0.000000   0.000000   0.000000   0.000000   0.000000
    26  H    0.000000  -0.000000   0.000000  -0.000000  -0.000000   0.000000
    27  H    0.000001  -0.000173  -0.000003  -0.000000  -0.000000  -0.000000
    28  H   -0.000023  -0.009496   0.005423  -0.000030  -0.000000  -0.000000
    29  H    0.005420  -0.009492  -0.000023  -0.000008   0.000000  -0.000000
    30  H   -0.000003  -0.000173   0.000001  -0.000000  -0.000000   0.000000
    31  H    0.000000  -0.000000   0.000000   0.000000   0.000000   0.000000
    32  H    0.000000  -0.000000  -0.000000  -0.000000   0.000000   0.000000
    33  H   -0.000000  -0.000000  -0.000000   0.000001   0.000839   0.004586
    34  H   -0.000036  -0.000008  -0.000009  -0.000002   0.006310   0.000312
    35  H   -0.039545   0.003318   0.000529   0.006288  -0.000002  -0.000008
    36  H    0.348111  -0.040590   0.006305   0.000524   0.000002  -0.000000
    37  H    0.006305  -0.040590   0.348108  -0.039661  -0.000002  -0.000000
    38  H    0.000529   0.003319  -0.039546   0.348369   0.005530  -0.000047
    39  H   -0.000009  -0.000008  -0.000036   0.005391   0.350946  -0.044247
    40  H   -0.000000  -0.000000  -0.000000  -0.000002  -0.038882   0.356939
    41  H    0.000000  -0.000000   0.000000  -0.000000   0.000000   0.000000
    42  H    0.000000  -0.000000   0.000000   0.000000   0.004783  -0.043168
              25         26         27         28         29         30
     1  C   -0.043088   0.004753  -0.000006  -0.000000  -0.000000  -0.000006
     2  C    0.356946  -0.044391  -0.000032  -0.000000  -0.000000  -0.000009
     3  C   -0.038863   0.350686   0.005496  -0.000003   0.000001   0.000001
     4  C    0.003424  -0.042040  -0.009428  -0.000172  -0.000172  -0.009435
     5  C   -0.000180  -0.010019  -0.040748   0.003284   0.003285  -0.040749
     6  C   -0.000002   0.005643   0.348470  -0.039606   0.000563   0.006231
     7  C   -0.000000  -0.000022  -0.039654   0.348449   0.006200   0.000562
     8  C   -0.000000  -0.000004   0.003280  -0.040608  -0.040609   0.003280
     9  C   -0.000000  -0.000008   0.000562   0.006200   0.348448  -0.039655
    10  C    0.000001  -0.000006   0.006230   0.000563  -0.039610   0.348467
    11  C    0.000838   0.006360   0.000001   0.000001  -0.000003   0.005501
    12  C    0.004589   0.000305  -0.000009  -0.000000  -0.000000  -0.000032
    13  C    0.000000   0.000000   0.000000  -0.000000  -0.000000   0.000000
    14  C    0.000000   0.000000   0.000000  -0.000000  -0.000000  -0.000000
    15  C    0.000000   0.000000  -0.000000   0.000000  -0.000000  -0.000000
    16  C    0.000000  -0.000000  -0.000000  -0.000000  -0.000000  -0.000000
    17  C   -0.000000   0.000000  -0.000000  -0.000007  -0.000007  -0.000000
    18  C   -0.000000   0.000000  -0.000000  -0.000008  -0.000030  -0.000000
    19  C   -0.000000   0.000000   0.000001  -0.000023   0.005420  -0.000003
    20  C   -0.000000  -0.000000  -0.000173  -0.009496  -0.009492  -0.000173
    21  C    0.000000   0.000000  -0.000003   0.005423  -0.000023   0.000001
    22  C    0.000000  -0.000000  -0.000000  -0.000030  -0.000008  -0.000000
    23  C    0.000000  -0.000000  -0.000000  -0.000000   0.000000  -0.000000
    24  C    0.000000   0.000000  -0.000000  -0.000000  -0.000000   0.000000
    25  H    0.597203  -0.005627   0.000005   0.000000   0.000000   0.000000
    26  H   -0.005627   0.599958   0.002740   0.000004   0.000000   0.000000
    27  H    0.000005   0.002740   0.595192  -0.005338   0.000019  -0.000182
    28  H    0.000000   0.000004  -0.005338   0.595138  -0.000182   0.000019
    29  H    0.000000   0.000000   0.000019  -0.000182   0.595149  -0.005339
    30  H    0.000000   0.000000  -0.000182   0.000019  -0.005339   0.595198
    31  H    0.000017  -0.000173   0.000000   0.000000   0.000004   0.002742
    32  H   -0.000189   0.000017   0.000000   0.000000   0.000000   0.000005
    33  H    0.000000   0.000000  -0.000000   0.000000  -0.000000   0.000000
    34  H    0.000000   0.000000   0.000000  -0.000000  -0.000000  -0.000000
    35  H    0.000000  -0.000000   0.000000   0.000000   0.000007   0.000000
    36  H   -0.000000   0.000000   0.000000   0.000000   0.002789   0.000004
    37  H    0.000000   0.000000   0.000004   0.002789   0.000000   0.000000
    38  H   -0.000000   0.000000   0.000000   0.000007   0.000000   0.000000
    39  H    0.000000  -0.000000  -0.000000  -0.000000  -0.000000   0.000000
    40  H    0.000000   0.000000   0.000000  -0.000000   0.000000  -0.000000
    41  H   -0.005509  -0.000176  -0.000000  -0.000000  -0.000000  -0.000000
    42  H    0.000000   0.000000   0.000000  -0.000000  -0.000000   0.000000
              31         32         33         34         35         36
     1  C    0.004752  -0.043088   0.000000   0.000000  -0.000000   0.000000
     2  C    0.000305   0.004589   0.000000   0.000000  -0.000000   0.000000
     3  C    0.006359   0.000838   0.000000  -0.000000  -0.000000   0.000000
     4  C   -0.042038   0.003424   0.000000   0.000000  -0.000000  -0.000000
     5  C   -0.010019  -0.000180   0.000000  -0.000000  -0.000000  -0.000003
     6  C   -0.000007   0.000001   0.000000  -0.000000  -0.000000  -0.000007
     7  C   -0.000008  -0.000000  -0.000000   0.000000   0.000002  -0.000029
     8  C   -0.000004  -0.000000  -0.000000  -0.000000  -0.000170  -0.009799
     9  C   -0.000021  -0.000000  -0.000000  -0.000000  -0.000002   0.005691
    10  C    0.005642  -0.000002  -0.000000  -0.000000  -0.000000  -0.000032
    11  C    0.350683  -0.038863   0.000000  -0.000000   0.000000   0.000000
    12  C   -0.044389   0.356945   0.000000   0.000000   0.000000  -0.000000
    13  C    0.000000   0.000000  -0.043085   0.004741  -0.000006  -0.000000
    14  C    0.000000   0.000000   0.356938  -0.044244  -0.000047  -0.000000
    15  C   -0.000000   0.000000  -0.038882   0.350946   0.005532  -0.000002
    16  C   -0.000000   0.000000   0.003437  -0.042281  -0.009384  -0.000170
    17  C    0.000000  -0.000000  -0.000180  -0.009666  -0.040957   0.003345
    18  C   -0.000000   0.000000  -0.000002   0.005393   0.348366  -0.039662
    19  C    0.000000   0.000000  -0.000000  -0.000036  -0.039545   0.348111
    20  C   -0.000000  -0.000000  -0.000000  -0.000008   0.003318  -0.040590
    21  C    0.000000  -0.000000  -0.000000  -0.000009   0.000529   0.006305
    22  C    0.000000  -0.000000   0.000001  -0.000002   0.006288   0.000524
    23  C    0.000000   0.000000   0.000839   0.006310  -0.000002   0.000002
    24  C    0.000000   0.000000   0.004586   0.000312  -0.000008  -0.000000
    25  H    0.000017  -0.000189   0.000000   0.000000   0.000000  -0.000000
    26  H   -0.000173   0.000017   0.000000   0.000000  -0.000000   0.000000
    27  H    0.000000   0.000000  -0.000000   0.000000   0.000000   0.000000
    28  H    0.000000   0.000000   0.000000  -0.000000   0.000000   0.000000
    29  H    0.000004   0.000000  -0.000000  -0.000000   0.000007   0.002789
    30  H    0.002742   0.000005   0.000000  -0.000000   0.000000   0.000004
    31  H    0.599955  -0.005627   0.000000  -0.000000   0.000000   0.000000
    32  H   -0.005627   0.597206   0.000000   0.000000  -0.000000   0.000000
    33  H    0.000000   0.000000   0.597155  -0.005623   0.000006   0.000000
    34  H   -0.000000   0.000000  -0.005623   0.599300   0.002706   0.000007
    35  H    0.000000  -0.000000   0.000006   0.002706   0.595612  -0.005403
    36  H    0.000000   0.000000   0.000000   0.000007  -0.005403   0.596150
    37  H    0.000000  -0.000000   0.000000   0.000000   0.000019  -0.000181
    38  H   -0.000000   0.000000   0.000000   0.000001  -0.000181   0.000019
    39  H    0.000000   0.000000   0.000017  -0.000173   0.000001   0.000000
    40  H    0.000000   0.000000  -0.000189   0.000017   0.000000   0.000000
    41  H   -0.000176  -0.005509   0.000000   0.000000   0.000000   0.000000
    42  H    0.000000   0.000000  -0.005512  -0.000176  -0.000000  -0.000000
              37         38         39         40         41         42
     1  C    0.000000  -0.000000   0.000000   0.000000   0.358988   0.000000
     2  C   -0.000000   0.000000   0.000000   0.000000  -0.043152   0.000000
     3  C    0.000000   0.000000  -0.000000   0.000000   0.004777   0.000000
     4  C   -0.000000  -0.000000   0.000000   0.000000   0.000611   0.000000
     5  C   -0.000003  -0.000000  -0.000000   0.000000   0.000004   0.000000
     6  C   -0.000032  -0.000000  -0.000000  -0.000000   0.000000  -0.000000
     7  C    0.005694  -0.000002  -0.000000  -0.000000   0.000000   0.000000
     8  C   -0.009800  -0.000170  -0.000000  -0.000000  -0.000000  -0.000000
     9  C   -0.000029   0.000002   0.000000  -0.000000   0.000000   0.000000
    10  C   -0.000007  -0.000000  -0.000000   0.000000   0.000000  -0.000000
    11  C    0.000000  -0.000000  -0.000000   0.000000   0.004777   0.000000
    12  C    0.000000  -0.000000   0.000000   0.000000  -0.043152   0.000000
    13  C   -0.000000  -0.000006   0.004742  -0.043085   0.000000   0.358995
    14  C   -0.000000  -0.000008   0.000312   0.004586   0.000000  -0.043169
    15  C    0.000002  -0.000002   0.006310   0.000839   0.000000   0.004782
    16  C   -0.000170  -0.009383  -0.042281   0.003437   0.000000   0.000608
    17  C    0.003345  -0.040958  -0.009663  -0.000180   0.000000   0.000004
    18  C    0.000524   0.006288  -0.000002   0.000001  -0.000000   0.000000
    19  C    0.006305   0.000529  -0.000009  -0.000000   0.000000   0.000000
    20  C   -0.040590   0.003319  -0.000008  -0.000000  -0.000000  -0.000000
    21  C    0.348108  -0.039546  -0.000036  -0.000000   0.000000   0.000000
    22  C   -0.039661   0.348369   0.005391  -0.000002  -0.000000   0.000000
    23  C   -0.000002   0.005530   0.350946  -0.038882   0.000000   0.004783
    24  C   -0.000000  -0.000047  -0.044247   0.356939   0.000000  -0.043168
    25  H    0.000000  -0.000000   0.000000   0.000000  -0.005509   0.000000
    26  H    0.000000   0.000000  -0.000000   0.000000  -0.000176   0.000000
    27  H    0.000004   0.000000  -0.000000   0.000000  -0.000000   0.000000
    28  H    0.002789   0.000007  -0.000000  -0.000000  -0.000000  -0.000000
    29  H    0.000000   0.000000  -0.000000   0.000000  -0.000000  -0.000000
    30  H    0.000000   0.000000   0.000000  -0.000000  -0.000000   0.000000
    31  H    0.000000  -0.000000   0.000000   0.000000  -0.000176   0.000000
    32  H   -0.000000   0.000000   0.000000   0.000000  -0.005509   0.000000
    33  H    0.000000   0.000000   0.000017  -0.000189   0.000000  -0.005512
    34  H    0.000000   0.000001  -0.000173   0.000017   0.000000  -0.000176
    35  H    0.000019  -0.000181   0.000001   0.000000   0.000000  -0.000000
    36  H   -0.000181   0.000019   0.000000   0.000000   0.000000  -0.000000
    37  H    0.596145  -0.005403   0.000007   0.000000   0.000000  -0.000000
    38  H   -0.005403   0.595616   0.002705   0.000006   0.000000  -0.000000
    39  H    0.000007   0.002705   0.599306  -0.005624   0.000000  -0.000176
    40  H    0.000000   0.000006  -0.005624   0.597156   0.000000  -0.005512
    41  H    0.000000   0.000000   0.000000   0.000000   0.598838   0.000000
    42  H   -0.000000  -0.000000  -0.000176  -0.005512   0.000000   0.598902
 Mulliken charges:
               1
     1  C   -0.126763
     2  C   -0.133617
     3  C   -0.173726
     4  C    0.089310
     5  C    0.094572
     6  C   -0.181673
     7  C   -0.181391
     8  C    0.094894
     9  C   -0.181381
    10  C   -0.181660
    11  C   -0.173740
    12  C   -0.133619
    13  C   -0.126760
    14  C   -0.133700
    15  C   -0.173586
    16  C    0.088413
    17  C    0.093168
    18  C   -0.180720
    19  C   -0.180614
    20  C    0.094238
    21  C   -0.180606
    22  C   -0.180729
    23  C   -0.173575
    24  C   -0.133702
    25  H    0.130434
    26  H    0.132000
    27  H    0.133571
    28  H    0.133594
    29  H    0.133587
    30  H    0.133569
    31  H    0.132002
    32  H    0.130432
    33  H    0.130494
    34  H    0.132486
    35  H    0.133320
    36  H    0.132931
    37  H    0.132935
    38  H    0.133316
    39  H    0.132482
    40  H    0.130494
    41  H    0.129679
    42  H    0.129640
 Sum of Mulliken charges =  -0.00000
 Mulliken charges with hydrogens summed into heavy atoms:
               1
     1  C    0.002916
     2  C   -0.003183
     3  C   -0.041726
     4  C    0.089310
     5  C    0.094572
     6  C   -0.048102
     7  C   -0.047797
     8  C    0.094894
     9  C   -0.047794
    10  C   -0.048092
    11  C   -0.041737
    12  C   -0.003186
    13  C    0.002880
    14  C   -0.003205
    15  C   -0.041100
    16  C    0.088413
    17  C    0.093168
    18  C   -0.047400
    19  C   -0.047683
    20  C    0.094238
    21  C   -0.047671
    22  C   -0.047413
    23  C   -0.041093
    24  C   -0.003208
 Electronic spatial extent (au):  <R**2>=          15603.4823
 Charge=              0.0000 electrons
 Dipole moment (field-independent basis, Debye):
    X=              0.0044    Y=             -0.0001    Z=              0.0002  Tot=              0.0044
 Quadrupole moment (field-independent basis, Debye-Ang):
   XX=           -119.2853   YY=           -125.9792   ZZ=           -142.5234
   XY=              0.0004   XZ=              0.0012   YZ=             -0.1967
 Traceless Quadrupole moment (field-independent basis, Debye-Ang):
   XX=              9.9773   YY=              3.2834   ZZ=            -13.2608
   XY=              0.0004   XZ=              0.0012   YZ=             -0.1967
 Octapole moment (field-independent basis, Debye-Ang**2):
  XXX=             -0.2069  YYY=             -0.0016  ZZZ=              0.0027  XYY=            -11.7833
  XXY=              0.0017  XXZ=             -0.0085  XZZ=             11.8474  YZZ=              0.0006
  YYZ=             -0.0007  XYZ=            -28.4435
 Hexadecapole moment (field-independent basis, Debye-Ang**3):
 XXXX=         -18240.8097 YYYY=           -926.5290 ZZZZ=           -346.3341 XXXY=              0.0094
 XXXZ=              0.1098 YYYX=              0.0012 YYYZ=             -0.7167 ZZZX=             -0.0002
 ZZZY=             -0.1227 XXYY=          -3338.4283 XXZZ=          -3669.1456 YYZZ=           -213.9780
 XXYZ=           -135.4949 YYXZ=              0.0033 ZZXY=             -0.0051
 N-N= 1.646318999345D+03 E-N=-5.434649267506D+03  KE= 9.163233069896D+02
 1\1\GINC-N095\FOpt\RB3LYP\6-31G(d)\C24H18\CCOLWELL\18-Apr-2019\0\\#n B
 3LYP/6-31G(d) opt\\geometry optimization\\0,1\C,-7.895176224,0.1461219
 175,0.0258598188\C,-7.1865061411,0.2144980346,1.2267731488\C,-5.792570
 8776,0.2146124555,1.2209414007\C,-5.0739804579,0.144879354,0.014925840
 8\C,-3.5898705508,0.1443935398,0.0091801434\C,-2.8571351128,-0.5257597
 382,1.0032181729\C,-1.4659062442,-0.5260151822,0.9980082861\C,-0.74049
 14377,0.1436117809,-0.0020671441\C,-1.4733885522,0.813551762,-0.996459
 4745\C,-2.8645739634,0.8140063275,-0.9907117414\C,-5.8019354339,0.0757
 855038,-1.1854548144\C,-7.195901848,0.0771377996,-1.1804791612\C,7.896
 5504843,0.1403470868,-0.0352717274\C,7.1887437639,-0.6450594961,-0.946
 9654853\C,5.794753369,-0.6445923729,-0.9409564621\C,5.0756190819,0.141
 53655,-0.0242296841\C,3.591387942,0.1421496647,-0.0185805561\C,2.85792
 40399,0.0825120441,-1.2154042669\C,1.466706055,0.0827264288,-1.2101909
 532\C,0.7421699158,0.1431946337,-0.0077258248\C,1.4758718933,0.2030253
 582,1.1891916378\C,2.8670843948,0.2022400847,1.18380402\C,5.80255396,0
 .9270200006,0.8868718264\C,7.1965260722,0.9263218456,0.8819573856\H,-7
 .7200641967,0.2773628092,2.1716671083\H,-5.2520259258,0.2963127441,2.1
 598963219\H,-3.3851885037,-1.0847223645,1.7707430833\H,-0.9323602115,-
 1.0853223852,1.7614721889\H,-0.9455743005,1.3724251918,-1.7642193271\H
 ,-3.3984134166,1.3730462179,-1.7541705\H,-5.2687853562,-0.0063555289,-
 2.1285937619\H,-7.7367829966,0.0147756218,-2.1212337167\H,7.7229209368
 ,-1.2677038251,-1.6600055482\H,5.2547382662,-1.2808412583,-1.636644525
 5\H,3.3856128231,0.0526685115,-2.1647070216\H,0.9321269712,0.017319919
 ,-2.1538243887\H,0.9485107496,0.2686970441,2.1368619539\H,3.4019867049
 ,0.2315917172,2.1290707415\H,5.2685407417,1.5636998957,1.5867899516\H,
 7.736814498,1.5485092815,1.5907796414\H,-8.9818066595,0.1466130794,0.0
 300804787\H,8.9831847468,0.139919946,-0.0394960655\\Version=EM64L-G09R
 evE.01\State=1-A\HF=-925.4214552\RMSD=2.978e-09\RMSF=8.213e-06\Dipole=
 0.0017379,-0.0000789,-0.0000405\Quadrupole=7.4178248,-9.8030893,2.3852
 645,-0.0036374,-0.0188346,0.8405847\PG=C01 [X(C24H18)]\\@


 THE FIRST AND LAST THING REQUIRED OF GENIUS IS THE LOVE OF TRUTH.

                          -- GOETHE
 Job cpu time:       0 days  0 hours 57 minutes 10.1 seconds.
 File lengths (MBytes):  RWF=     99 Int=      0 D2E=      0 Chk=     12 Scr=      1
 Normal termination of Gaussian 09 at Thu Apr 18 12:10:39 2019.
