
                                 *****************
                                 * O   R   C   A *
                                 *****************

           --- An Ab Initio, DFT and Semiempirical electronic structure package ---

                  #######################################################
                  #                        -***-                        #
                  #          Department of theory and spectroscopy      #
                  #               Directorship: Frank Neese             #
                  #        Max Planck Institute fuer Kohlenforschung    #
                  #                Kaiser Wilhelm Platz 1               #
                  #                 D-45470 Muelheim/Ruhr               #
                  #                      Germany                        #
                  #                                                     #
                  #                  All rights reserved                #
                  #                        -***-                        #
                  #######################################################


                         Program Version 4.2.1 -  RELEASE  -


 With contributions from (in alphabetic order):
   Daniel Aravena         : Magnetic Suceptibility
   Michael Atanasov       : Ab Initio Ligand Field Theory (pilot matlab implementation)
   Alexander A. Auer      : GIAO ZORA, VPT2
   Ute Becker             : Parallelization
   Giovanni Bistoni       : ED, misc. LED, open-shell LED, HFLD
   Martin Brehm           : Molecular dynamics
   Dmytro Bykov           : SCF Hessian
   Vijay G. Chilkuri      : MRCI spin determinant printing, contributions to CSF-ICE
   Dipayan Datta          : RHF DLPNO-CCSD density
   Achintya Kumar Dutta   : EOM-CC, STEOM-CC
   Dmitry Ganyushin       : Spin-Orbit,Spin-Spin,Magnetic field MRCI
   Miquel Garcia          : C-PCM Hessian, Gaussian charge scheme
   Yang Guo               : DLPNO-NEVPT2, CIM, IAO-localization
   Andreas Hansen         : Spin unrestricted coupled pair/coupled cluster methods
   Benjamin Helmich-Paris : CASSCF linear response (MC-RPA)
   Lee Huntington         : MR-EOM, pCC
   Robert Izsak           : Overlap fitted RIJCOSX, COSX-SCS-MP3, EOM
   Christian Kollmar      : KDIIS, OOCD, Brueckner-CCSD(T), CCSD density
   Simone Kossmann        : Meta GGA functionals, TD-DFT gradient, OOMP2, MP2 Hessian
   Martin Krupicka        : AUTO-CI
   Lucas Lang             : DCDCAS
   Dagmar Lenk            : GEPOL surface, SMD
   Dimitrios Liakos       : Extrapolation schemes; Compound Job, initial MDCI parallelization
   Dimitrios Manganas     : Further ROCIS development; embedding schemes
   Dimitrios Pantazis     : SARC Basis sets
   Taras Petrenko         : DFT Hessian,TD-DFT gradient, ASA, ECA, R-Raman, ABS, FL, XAS/XES, NRVS
   Peter Pinski           : DLPNO-MP2, DLPNO-MP2 Gradient
   Christoph Reimann      : Effective Core Potentials
   Marius Retegan         : Local ZFS, SOC
   Christoph Riplinger    : Optimizer, TS searches, QM/MM, DLPNO-CCSD(T), (RO)-DLPNO pert. Triples
   Tobias Risthaus        : Range-separated hybrids, TD-DFT gradient, RPA, STAB
   Michael Roemelt        : Original ROCIS implementation
   Masaaki Saitow         : Open-shell DLPNO-CCSD energy and density
   Barbara Sandhoefer     : DKH picture change effects
   Avijit Sen             : IP-ROCIS
   Kantharuban Sivalingam : CASSCF convergence, NEVPT2, FIC-MRCI
   Bernardo de Souza      : ESD, SOC TD-DFT
   Georgi Stoychev        : AutoAux, RI-MP2 NMR
   Willem Van den Heuvel  : Paramagnetic NMR
   Boris Wezisla          : Elementary symmetry handling
   Frank Wennmohs         : Technical directorship


 We gratefully acknowledge several colleagues who have allowed us to
 interface, adapt or use parts of their codes:
   Stefan Grimme, W. Hujo, H. Kruse,             : VdW corrections, initial TS optimization,
                  C. Bannwarth                     DFT functionals, gCP, sTDA/sTD-DF
   Ed Valeev, F. Pavosevic, A. Kumar             : LibInt (2-el integral package), F12 methods
   Garnet Chan, S. Sharma, J. Yang, R. Olivares  : DMRG
   Ulf Ekstrom                                   : XCFun DFT Library
   Mihaly Kallay                                 : mrcc  (arbitrary order and MRCC methods)
   Andreas Klamt, Michael Diedenhofen            : otool_cosmo (COSMO solvation model)
   Jiri Pittner, Ondrej Demel                    : Mk-CCSD
   Frank Weinhold                                : gennbo (NPA and NBO analysis)
   Christopher J. Cramer and Donald G. Truhlar   : smd solvation model
   Lars Goerigk                                  : TD-DFT with DH, B97 family of functionals
   V. Asgeirsson, H. Jonsson                     : NEB implementation
   FAccTs GmbH                                   : IRC, NEB, NEB-TS, Multilevel, MM, QM/MM, CI optimization
   S Lehtola, MJT Oliveira, MAL Marques          : LibXC Library


 Your calculation uses the libint2 library for the computation of 2-el integrals
 For citations please refer to: http://libint.valeyev.net

 Your ORCA version has been built with support for libXC version: 4.2.3
 For citations please refer to: https://tddft.org/programs/libxc/

 This ORCA versions uses:
   CBLAS   interface :  Fast vector & matrix operations
   LAPACKE interface :  Fast linear algebra routines
   SCALAPACK package :  Parallel linear algebra routines


----- Orbital basis set information -----
Your calculation utilizes the basis: STO-3G
   H-Ne       : W. J. Hehre, R. F. Stewart and J. A. Pople, J. Chem. Phys. 2657 (1969).
   Na-Ar      : W. J. Hehre, R. Ditchfield, R. F. Stewart and J. A. Pople, J. Chem. Phys. 2769 (1970).
   K,Ca,Ga-Kr : W. J. Pietro, B. A. Levy, W. J. Hehre and R. F. Stewart, J. Am. Chem. Soc. 19, 2225 (1980).
   Sc-Zn,Y-Cd : W. J. Pietro and W. J. Hehre, J. Comp. Chem. 4, 241 (1983).

================================================================================
                                        WARNINGS
                       Please study these warnings very carefully!
================================================================================


WARNING: Geometry Optimization
  ===> : Switching off AutoStart
         For restart on a previous wavefunction, please use MOREAD

INFO   : the flag for use of LIBINT has been found!

================================================================================
                                       INPUT FILE
================================================================================
NAME = dummy2.inp
|  1> ! B3LYP OPT STO-3G
|  2> %pal
|  3> 	nprocs 28
|  4> end
|  5> * xyz 0 1
|  6>   C     -3.452440    0.712200    0.112300
|  7>   C     -2.854410    2.067000   -0.087770
|  8>   C     -2.180790    2.294020   -1.303530
|  9>   C     -0.978290    2.991150   -1.337050
| 10>   C     -0.394940    3.491070   -0.156240
| 11>   C      1.085330    3.355000   -0.004690
| 12>   C      1.935590    3.128250   -1.108620
| 13>   C      2.967690    2.195930   -1.036350
| 14>   C      3.201690    1.456150    0.144260
| 15>   C      2.625670    1.998840    1.311420
| 16>   C      1.586750    2.919730    1.238160
| 17>   C     -1.263000    3.595630    0.953140
| 18>   C     -2.468100    2.896110    0.987490
| 19>   C     -3.146900    0.051140    1.317720
| 20>   C     -2.852670   -1.307900    1.334290
| 21>   C     -2.850710   -2.064690    0.146350
| 22>   C      2.376020   -2.603670   -0.071370
| 23>   C      2.794420   -2.071370    1.166140
| 24>   C      3.369220   -0.807520    1.249940
| 25>   C      3.524920   -0.003220    0.100850
| 26>   C      3.484330   -0.703720   -1.123830
| 27>   C      2.936100   -1.979970   -1.207000
| 28>   C     -3.530490   -1.484270   -0.947070
| 29>   C     -3.824850   -0.121940   -0.964160
| 30>   H     -2.470040    1.740800   -2.191530
| 31>   H     -0.396430    2.946550   -2.251890
| 32>   H      1.699310    3.559720   -2.077720
| 33>   H      3.484470    1.937480   -1.956170
| 34>   H      2.836720    1.561420    2.281440
| 35>   H      1.036660    3.132860    2.149380
| 36>   H     -0.933730    4.101650    1.857050
| 37>   H     -3.032730    2.880270    1.916480
| 38>   H     -2.915890    0.629970    2.206500
| 39>   H     -2.408990   -1.717030    2.236330
| 40>   H      2.505840   -2.555680    2.093910
| 41>   H      3.522750   -0.388580    2.239500
| 42>   H      3.717610   -0.193820   -2.053560
| 43>   H      2.793000   -2.407790   -2.194860
| 44>   H     -3.697240   -2.061540   -1.853050
| 45>   H     -4.208860    0.314830   -1.882820
| 46>   H     -2.497262   -3.103059    0.122632
| 47>   H      1.816568   -3.544827   -0.140480
| 48> 
| 49> **                         ****END OF INPUT****
================================================================================

                       *****************************
                       * Geometry Optimization Run *
                       *****************************

Geometry optimization settings:
Update method            Update   .... BFGS
Choice of coordinates    CoordSys .... Z-matrix Internals
Initial Hessian          InHess   .... Almoef's Model

Convergence Tolerances:
Energy Change            TolE     ....  5.0000e-06 Eh
Max. Gradient            TolMAXG  ....  3.0000e-04 Eh/bohr
RMS Gradient             TolRMSG  ....  1.0000e-04 Eh/bohr
Max. Displacement        TolMAXD  ....  4.0000e-03 bohr
RMS Displacement         TolRMSD  ....  2.0000e-03 bohr
Strict Convergence                ....  False
------------------------------------------------------------------------------
                        ORCA OPTIMIZATION COORDINATE SETUP
------------------------------------------------------------------------------

The optimization will be done in new redundant internal coordinates
Making redundant internal coordinates   ...  (new redundants) done
Evaluating the initial hessian          ...  (Almloef) done
Evaluating the coordinates              ...  done
Calculating the B-matrix                .... done
Calculating the G-matrix                .... done
Diagonalizing the G-matrix              .... done
Small eigenvalue found = 2.938e-03
Small eigenvalue found = 7.509e-03
Small eigenvalue found = 1.259e-02
Small eigenvalue found = 1.712e-02
Small eigenvalue found = 2.309e-02
The first mode is                       ....  106
The number of degrees of freedom        ....  120

    -----------------------------------------------------------------
                    Redundant Internal Coordinates


    -----------------------------------------------------------------
         Definition                    Initial Value    Approx d2E/dq
    -----------------------------------------------------------------
      1. B(C   1,C   0)                  1.4944         0.425812   
      2. B(C   2,C   1)                  1.4083         0.584124   
      3. B(C   3,C   2)                  1.3904         0.623955   
      4. B(C   4,C   3)                  1.4087         0.583245   
      5. B(C   5,C   4)                  1.4942         0.426058   
      6. B(C   6,C   5)                  1.4117         0.576831   
      7. B(C   7,C   6)                  1.3927         0.618580   
      8. B(C   8,C   7)                  1.4128         0.574696   
      9. B(C   9,C   8)                  1.4102         0.580179   
     10. B(C  10,C   5)                  1.4091         0.582463   
     11. B(C  10,C   9)                  1.3902         0.624252   
     12. B(C  11,C   4)                  1.4125         0.575208   
     13. B(C  12,C  11)                  1.3938         0.616057   
     14. B(C  12,C   1)                  1.4117         0.576963   
     15. B(C  13,C   0)                  1.4083         0.584110   
     16. B(C  14,C  13)                  1.3906         0.623365   
     17. B(C  15,C  14)                  1.4085         0.583696   
     18. B(C  17,C  16)                  1.4106         0.579228   
     19. B(C  18,C  17)                  1.3909         0.622626   
     20. B(C  19,C  18)                  1.4112         0.577936   
     21. B(C  19,C   8)                  1.4954         0.424260   
     22. B(C  20,C  19)                  1.4114         0.577454   
     23. B(C  21,C  20)                  1.3915         0.621351   
     24. B(C  21,C  16)                  1.4115         0.577336   
     25. B(C  22,C  15)                  1.4123         0.575679   
     26. B(C  23,C  22)                  1.3939         0.615969   
     27. B(C  23,C   0)                  1.4118         0.576661   
     28. B(H  24,C   2)                  1.0855         0.366132   
     29. B(H  25,C   3)                  1.0851         0.366616   
     30. B(H  26,C   6)                  1.0868         0.364349   
     31. B(H  27,C   7)                  1.0862         0.365103   
     32. B(H  28,C   9)                  1.0848         0.367029   
     33. B(H  29,C  10)                  1.0855         0.366081   
     34. B(H  30,C  11)                  1.0870         0.364116   
     35. B(H  31,C  12)                  1.0872         0.363776   
     36. B(H  32,C  13)                  1.0855         0.366084   
     37. B(H  33,C  14)                  1.0853         0.366347   
     38. B(H  34,C  17)                  1.0856         0.365928   
     39. B(H  35,C  18)                  1.0855         0.366102   
     40. B(H  36,C  20)                  1.0857         0.365790   
     41. B(H  37,C  21)                  1.0860         0.365444   
     42. B(H  38,C  22)                  1.0871         0.363920   
     43. B(H  39,C  23)                  1.0873         0.363722   
     44. B(H  40,C  15)                  1.0971         0.350788   
     45. B(H  41,H  40)                  4.3444         0.000000   
     46. B(H  41,C  16)                  1.0971         0.350881   
     47. A(C   1,C   0,C  13)          116.9571         0.401686   
     48. A(C   1,C   0,C  23)          122.6240         0.400779   
     49. A(C  13,C   0,C  23)          115.6267         0.423902   
     50. A(C   0,C   1,C  12)          122.6838         0.400816   
     51. A(C   2,C   1,C  12)          115.5929         0.423943   
     52. A(C   0,C   1,C   2)          116.9450         0.401688   
     53. A(C   3,C   2,H  24)          117.7934         0.354285   
     54. A(C   1,C   2,H  24)          119.7755         0.350353   
     55. A(C   1,C   2,C   3)          121.0189         0.429932   
     56. A(C   4,C   3,H  25)          119.9480         0.350342   
     57. A(C   2,C   3,C   4)          121.0555         0.429816   
     58. A(C   2,C   3,H  25)          117.6120         0.354364   
     59. A(C   5,C   4,C  11)          122.4048         0.400642   
     60. A(C   3,C   4,C  11)          115.4746         0.423598   
     61. A(C   3,C   4,C   5)          117.5763         0.401622   
     62. A(C   4,C   5,C   6)          122.1388         0.400840   
     63. A(C   4,C   5,C  10)          118.0415         0.401527   
     64. A(C   6,C   5,C  10)          115.1996         0.423710   
     65. A(C   7,C   6,H  26)          118.2390         0.353473   
     66. A(C   5,C   6,H  26)          120.1699         0.349323   
     67. A(C   5,C   6,C   7)          120.8820         0.428299   
     68. A(C   6,C   7,C   8)          121.1078         0.428014   
     69. A(C   8,C   7,H  27)          120.2819         0.349227   
     70. A(C   6,C   7,H  27)          117.8979         0.353597   
     71. A(C   7,C   8,C  19)          121.5056         0.400281   
     72. A(C   9,C   8,C  19)          119.2025         0.400950   
     73. A(C   7,C   8,C   9)          114.9922         0.423132   
     74. A(C  10,C   9,H  28)          117.3613         0.354460   
     75. A(C   8,C   9,H  28)          120.3610         0.350097   
     76. A(C   8,C   9,C  10)          121.1015         0.429446   
     77. A(C   5,C  10,H  29)          119.9617         0.350177   
     78. A(C   9,C  10,H  29)          117.6789         0.354305   
     79. A(C   5,C  10,C   9)          121.1322         0.429749   
     80. A(C  12,C  11,H  30)          118.3622         0.353190   
     81. A(C   4,C  11,H  30)          120.0939         0.349120   
     82. A(C   4,C  11,C  12)          120.9001         0.427769   
     83. A(C  11,C  12,H  31)          118.5141         0.353135   
     84. A(C   1,C  12,H  31)          120.0102         0.349244   
     85. A(C   1,C  12,C  11)          120.8361         0.428003   
     86. A(C  14,C  13,H  32)          117.7968         0.354220   
     87. A(C   0,C  13,H  32)          119.7801         0.350344   
     88. A(C   0,C  13,C  14)          120.9863         0.429858   
     89. A(C  15,C  14,H  33)          119.8584         0.350345   
     90. A(C  13,C  14,H  33)          117.6975         0.354263   
     91. A(C  13,C  14,C  15)          121.0199         0.429803   
     92. A(C  22,C  15,H  40)          121.8228         0.346981   
     93. A(C  14,C  15,H  40)          121.8162         0.347790   
     94. A(C  14,C  15,C  22)          115.5619         0.423719   
     95. A(C  17,C  16,C  21)          114.9222         0.423355   
     96. A(C  21,C  16,H  41)          122.0555         0.347165   
     97. A(C  17,C  16,H  41)          122.0224         0.347356   
     98. A(C  18,C  17,H  34)          117.6266         0.354123   
     99. A(C  16,C  17,H  34)          120.1679         0.349823   
    100. A(C  16,C  17,C  18)          121.2181         0.429119   
    101. A(C  19,C  18,H  35)          120.4456         0.349719   
    102. A(C  17,C  18,H  35)          117.6485         0.354152   
    103. A(C  17,C  18,C  19)          120.9568         0.428947   
    104. A(C  18,C  19,C  20)          114.8647         0.423201   
    105. A(C   8,C  19,C  20)          120.2201         0.400618   
    106. A(C   8,C  19,C  18)          120.5790         0.400677   
    107. A(C  21,C  20,H  36)          117.6589         0.353977   
    108. A(C  19,C  20,H  36)          120.2481         0.349620   
    109. A(C  19,C  20,C  21)          121.2238         0.428725   
    110. A(C  16,C  21,H  37)          120.3643         0.349552   
    111. A(C  16,C  21,C  20)          120.8981         0.428710   
    112. A(C  20,C  21,H  37)          117.8785         0.353921   
    113. A(C  15,C  22,C  23)          120.8518         0.427821   
    114. A(C  23,C  22,H  38)          118.4491         0.353150   
    115. A(C  15,C  22,H  38)          120.0536         0.349136   
    116. A(C   0,C  23,C  22)          120.8239         0.427952   
    117. A(C  22,C  23,H  39)          118.5265         0.353117   
    118. A(C   0,C  23,H  39)          120.0027         0.349205   
    119. D(C   2,C   1,C   0,C  13)    129.4954         0.012396   
    120. D(C  12,C   1,C   0,C  13)    -24.9093         0.012396   
    121. D(C   2,C   1,C   0,C  23)    -24.8840         0.012396   
    122. D(C  12,C   1,C   0,C  23)   -179.2887         0.012396   
    123. D(H  24,C   2,C   1,C   0)     27.8398         0.023457   
    124. D(C   3,C   2,C   1,C  12)     17.9241         0.023457   
    125. D(H  24,C   2,C   1,C  12)   -175.9364         0.023457   
    126. D(C   3,C   2,C   1,C   0)   -138.2998         0.023457   
    127. D(H  25,C   3,C   2,H  24)      0.2264         0.026961   
    128. D(C   4,C   3,C   2,H  24)   -166.3331         0.026961   
    129. D(C   4,C   3,C   2,C   1)      0.0725         0.026961   
    130. D(H  25,C   3,C   2,C   1)    166.6320         0.026961   
    131. D(C  11,C   4,C   3,C   2)    -18.0755         0.023383   
    132. D(C   5,C   4,C   3,C   2)    138.6340         0.023383   
    133. D(C   5,C   4,C   3,H  25)    -27.6151         0.023383   
    134. D(C  11,C   4,C   3,H  25)    175.6753         0.023383   
    135. D(C  10,C   5,C   4,C  11)     19.3413         0.012410   
    136. D(C  10,C   5,C   4,C   3)   -135.6481         0.012410   
    137. D(C   6,C   5,C   4,C  11)    174.0746         0.012410   
    138. D(C   6,C   5,C   4,C   3)     19.0852         0.012410   
    139. D(H  26,C   6,C   5,C  10)   -170.9442         0.022849   
    140. D(H  26,C   6,C   5,C   4)     33.6601         0.022849   
    141. D(C   7,C   6,C   5,C  10)     18.8741         0.022849   
    142. D(C   7,C   6,C   5,C   4)   -136.5216         0.022849   
    143. D(H  27,C   7,C   6,H  26)     -0.4600         0.026470   
    144. D(C   8,C   7,C   6,H  26)   -170.8137         0.026470   
    145. D(H  27,C   7,C   6,C   5)    169.9067         0.026470   
    146. D(C   8,C   7,C   6,C   5)     -0.4470         0.026470   
    147. D(C  19,C   8,C   7,C   6)    137.9427         0.022672   
    148. D(C   9,C   8,C   7,H  27)    171.3134         0.022672   
    149. D(C   9,C   8,C   7,C   6)    -18.5611         0.022672   
    150. D(C  19,C   8,C   7,H  27)    -32.1828         0.022672   
    151. D(H  28,C   9,C   8,C  19)     29.3957         0.023127   
    152. D(H  28,C   9,C   8,C   7)   -173.5222         0.023127   
    153. D(C  10,C   9,C   8,C  19)   -137.8836         0.023127   
    154. D(C  10,C   9,C   8,C   7)     19.1985         0.023127   
    155. D(H  29,C  10,C   9,H  28)     -1.1244         0.026988   
    156. D(C   5,C  10,C   9,H  28)   -168.4609         0.026988   
    157. D(C   5,C  10,C   9,C   8)     -0.8138         0.026988   
    158. D(H  29,C  10,C   5,C   6)    174.6618         0.023318   
    159. D(H  29,C  10,C   5,C   4)    -28.8813         0.023318   
    160. D(H  29,C  10,C   9,C   8)    166.5226         0.026988   
    161. D(C   9,C  10,C   5,C   6)    -18.2873         0.023318   
    162. D(C   9,C  10,C   5,C   4)    138.1696         0.023318   
    163. D(H  30,C  11,C   4,C   5)     33.2695         0.022714   
    164. D(H  30,C  11,C   4,C   3)   -171.2571         0.022714   
    165. D(C  12,C  11,C   4,C   5)   -137.3826         0.022714   
    166. D(C  12,C  11,C   4,C   3)     18.0909         0.022714   
    167. D(H  31,C  12,C  11,H  30)     -0.1408         0.026242   
    168. D(C   1,C  12,C  11,H  30)   -170.9743         0.026242   
    169. D(C   1,C  12,C  11,C   4)     -0.1641         0.026242   
    170. D(H  31,C  12,C   1,C   2)    171.4598         0.022860   
    171. D(H  31,C  12,C   1,C   0)    -33.8181         0.022860   
    172. D(H  31,C  12,C  11,C   4)    170.6694         0.026242   
    173. D(C  11,C  12,C   1,C   2)    -17.8430         0.022860   
    174. D(C  11,C  12,C   1,C   0)    136.8791         0.022860   
    175. D(H  32,C  13,C   0,C  23)   -175.9898         0.023456   
    176. D(H  32,C  13,C   0,C   1)     27.8338         0.023456   
    177. D(C  14,C  13,C   0,C  23)     17.9880         0.023456   
    178. D(C  14,C  13,C   0,C   1)   -138.1884         0.023456   
    179. D(H  33,C  14,C  13,C   0)    166.3835         0.026907   
    180. D(C  15,C  14,C  13,H  32)   -166.2672         0.026907   
    181. D(C  15,C  14,C  13,C   0)      0.0235         0.026907   
    182. D(H  33,C  14,C  13,H  32)      0.0927         0.026907   
    183. D(H  40,C  15,C  14,H  33)      5.9495         0.023421   
    184. D(H  40,C  15,C  14,C  13)    172.0182         0.023421   
    185. D(C  22,C  15,C  14,H  33)    175.8841         0.023421   
    186. D(C  22,C  15,C  14,C  13)    -18.0472         0.023421   
    187. D(H  34,C  17,C  16,H  41)     -4.3424         0.023048   
    188. D(H  34,C  17,C  16,C  21)   -173.1171         0.023048   
    189. D(C  18,C  17,C  16,H  41)   -172.7051         0.023048   
    190. D(C  18,C  17,C  16,C  21)     18.5202         0.023048   
    191. D(H  35,C  18,C  17,H  34)      1.6993         0.026839   
    192. D(H  35,C  18,C  17,C  16)    170.3473         0.026839   
    193. D(C  19,C  18,C  17,H  34)   -167.2006         0.026839   
    194. D(C  19,C  18,C  17,C  16)      1.4473         0.026839   
    195. D(C  20,C  19,C  18,H  35)    171.4648         0.022940   
    196. D(C  20,C  19,C  18,C  17)    -19.9444         0.022940   
    197. D(C   8,C  19,C  18,H  35)    -31.8701         0.022940   
    198. D(C   8,C  19,C  18,C  17)    136.7207         0.022940   
    199. D(C  20,C  19,C   8,C   9)    149.7899         0.012309   
    200. D(C  20,C  19,C   8,C   7)     -5.7554         0.012309   
    201. D(C  18,C  19,C   8,C   9)     -5.6334         0.012309   
    202. D(C  18,C  19,C   8,C   7)   -161.1788         0.012309   
    203. D(H  36,C  20,C  19,C  18)   -172.3550         0.022900   
    204. D(H  36,C  20,C  19,C   8)     30.8892         0.022900   
    205. D(C  21,C  20,C  19,C  18)     18.5677         0.022900   
    206. D(C  21,C  20,C  19,C   8)   -138.1880         0.022900   
    207. D(H  37,C  21,C  20,H  36)      1.4514         0.026722   
    208. D(H  37,C  21,C  20,C  19)    170.8016         0.026722   
    209. D(C  16,C  21,C  20,H  36)   -167.9748         0.026722   
    210. D(C  16,C  21,C  20,C  19)      1.3755         0.026722   
    211. D(H  37,C  21,C  16,H  41)      2.1799         0.022890   
    212. D(H  37,C  21,C  16,C  17)    170.9505         0.022890   
    213. D(C  20,C  21,C  16,H  41)    171.3442         0.022890   
    214. D(C  20,C  21,C  16,C  17)    -19.8852         0.022890   
    215. D(H  38,C  22,C  15,H  40)     -1.3698         0.022753   
    216. D(H  38,C  22,C  15,C  14)   -171.3037         0.022753   
    217. D(C  23,C  22,C  15,H  40)   -172.0184         0.022753   
    218. D(C  23,C  22,C  15,C  14)     18.0477         0.022753   
    219. D(H  39,C  23,C  22,H  38)     -0.1026         0.026234   
    220. D(H  39,C  23,C  22,C  15)    170.6928         0.026234   
    221. D(C   0,C  23,C  22,H  38)   -170.8834         0.026234   
    222. D(C   0,C  23,C  22,C  15)     -0.0879         0.026234   
    223. D(H  39,C  23,C   0,C  13)    171.4313         0.022835   
    224. D(H  39,C  23,C   0,C   1)    -33.8764         0.022835   
    225. D(C  22,C  23,C   0,C  13)    -17.9232         0.022835   
    226. D(C  22,C  23,C   0,C   1)    136.7691         0.022835   
    -----------------------------------------------------------------

Number of atoms                         .... 42
Number of degrees of freedom            .... 226

         *************************************************************
         *                GEOMETRY OPTIMIZATION CYCLE   1            *
         *************************************************************
---------------------------------
CARTESIAN COORDINATES (ANGSTROEM)
---------------------------------
  C     -3.452440    0.712200    0.112300
  C     -2.854410    2.067000   -0.087770
  C     -2.180790    2.294020   -1.303530
  C     -0.978290    2.991150   -1.337050
  C     -0.394940    3.491070   -0.156240
  C      1.085330    3.355000   -0.004690
  C      1.935590    3.128250   -1.108620
  C      2.967690    2.195930   -1.036350
  C      3.201690    1.456150    0.144260
  C      2.625670    1.998840    1.311420
  C      1.586750    2.919730    1.238160
  C     -1.263000    3.595630    0.953140
  C     -2.468100    2.896110    0.987490
  C     -3.146900    0.051140    1.317720
  C     -2.852670   -1.307900    1.334290
  C     -2.850710   -2.064690    0.146350
  C      2.376020   -2.603670   -0.071370
  C      2.794420   -2.071370    1.166140
  C      3.369220   -0.807520    1.249940
  C      3.524920   -0.003220    0.100850
  C      3.484330   -0.703720   -1.123830
  C      2.936100   -1.979970   -1.207000
  C     -3.530490   -1.484270   -0.947070
  C     -3.824850   -0.121940   -0.964160
  H     -2.470040    1.740800   -2.191530
  H     -0.396430    2.946550   -2.251890
  H      1.699310    3.559720   -2.077720
  H      3.484470    1.937480   -1.956170
  H      2.836720    1.561420    2.281440
  H      1.036660    3.132860    2.149380
  H     -0.933730    4.101650    1.857050
  H     -3.032730    2.880270    1.916480
  H     -2.915890    0.629970    2.206500
  H     -2.408990   -1.717030    2.236330
  H      2.505840   -2.555680    2.093910
  H      3.522750   -0.388580    2.239500
  H      3.717610   -0.193820   -2.053560
  H      2.793000   -2.407790   -2.194860
  H     -3.697240   -2.061540   -1.853050
  H     -4.208860    0.314830   -1.882820
  H     -2.497262   -3.103059    0.122632
  H      1.816568   -3.544827   -0.140480

----------------------------
CARTESIAN COORDINATES (A.U.)
----------------------------
  NO LB      ZA    FRAG     MASS         X           Y           Z
   0 C     6.0000    0    12.011   -6.524166    1.345863    0.212216
   1 C     6.0000    0    12.011   -5.394053    3.906064   -0.165861
   2 C     6.0000    0    12.011   -4.121096    4.335070   -2.463315
   3 C     6.0000    0    12.011   -1.848700    5.652454   -2.526658
   4 C     6.0000    0    12.011   -0.746328    6.597166   -0.295251
   5 C     6.0000    0    12.011    2.050976    6.340031   -0.008863
   6 C     6.0000    0    12.011    3.657735    5.911536   -2.094988
   7 C     6.0000    0    12.011    5.608121    4.149706   -1.958418
   8 C     6.0000    0    12.011    6.050317    2.751725    0.272612
   9 C     6.0000    0    12.011    4.961797    3.777260    2.478225
  10 C     6.0000    0    12.011    2.998523    5.517490    2.339783
  11 C     6.0000    0    12.011   -2.386724    6.794756    1.801174
  12 C     6.0000    0    12.011   -4.664033    5.472855    1.866086
  13 C     6.0000    0    12.011   -5.946779    0.096641    2.490130
  14 C     6.0000    0    12.011   -5.390765   -2.471573    2.521443
  15 C     6.0000    0    12.011   -5.387061   -3.901699    0.276561
  16 C     6.0000    0    12.011    4.490027   -4.920223   -0.134870
  17 C     6.0000    0    12.011    5.280689   -3.914322    2.203685
  18 C     6.0000    0    12.011    6.366903   -1.525992    2.362044
  19 C     6.0000    0    12.011    6.661133   -0.006085    0.190579
  20 C     6.0000    0    12.011    6.584429   -1.329838   -2.123731
  21 C     6.0000    0    12.011    5.548425   -3.741601   -2.280899
  22 C     6.0000    0    12.011   -6.671659   -2.804864   -1.789703
  23 C     6.0000    0    12.011   -7.227919   -0.230433   -1.821998
  24 H     1.0000    0     1.008   -4.667699    3.289635   -4.141392
  25 H     1.0000    0     1.008   -0.749144    5.568173   -4.255455
  26 H     1.0000    0     1.008    3.211231    6.726896   -3.926322
  27 H     1.0000    0     1.008    6.584694    3.661307   -3.696626
  28 H     1.0000    0     1.008    5.360624    2.950656    4.311297
  29 H     1.0000    0     1.008    1.959003    5.920247    4.061740
  30 H     1.0000    0     1.008   -1.764494    7.750995    3.509316
  31 H     1.0000    0     1.008   -5.731029    5.442921    3.621622
  32 H     1.0000    0     1.008   -5.510234    1.190471    4.169681
  33 H     1.0000    0     1.008   -4.552331   -3.244716    4.226051
  34 H     1.0000    0     1.008    4.735351   -4.829535    3.956916
  35 H     1.0000    0     1.008    6.657033   -0.734310    4.232042
  36 H     1.0000    0     1.008    7.025265   -0.366267   -3.880666
  37 H     1.0000    0     1.008    5.278005   -4.550064   -4.147684
  38 H     1.0000    0     1.008   -6.986771   -3.895746   -3.501757
  39 H     1.0000    0     1.008   -7.953593    0.594942   -3.558014
  40 H     1.0000    0     1.008   -4.719141   -5.863932    0.231741
  41 H     1.0000    0     1.008    3.432816   -6.698752   -0.265469

--------------------------------
INTERNAL COORDINATES (ANGSTROEM)
--------------------------------
 C      0   0   0     0.000000000000     0.00000000     0.00000000
 C      1   0   0     1.494373087887     0.00000000     0.00000000
 C      2   1   0     1.408323244997   116.94496459     0.00000000
 C      3   2   1     1.390366885861   121.01891143   221.70024825
 C      4   3   2     1.408733290939   121.05545133     0.07249460
 C      5   4   3     1.494216088891   117.57626787   138.63400384
 C      6   5   4     1.411743275174   122.13877833    19.08522926
 C      7   6   5     1.392721775984   120.88195950   223.47838203
 C      8   7   6     1.412752781098   121.10780469   359.55302890
 C      9   8   7     1.410168054559   114.99215638   341.43887717
 C     10   9   8     1.390237456732   121.10146959    19.19853473
 C      5   4   3     1.412510156282   115.47458631   341.92445393
 C     12   5   4     1.393834338399   120.90006211    18.09087082
 C      1   2   3     1.408329645928   116.95709806   129.49536763
 C     14   1   2     1.390624168998   120.98634117   221.81155938
 C     15  14   1     1.408522768471   121.01986464     0.02353366
 C      9   8   7     4.148537775916   115.85174207   111.27972394
 C     17   9   8     1.410614352011    61.71124392   183.07449213
 C     18  17   9     1.390947268052   121.21814005   345.45925276
 C     19  18  17     1.411222451671   120.95677612     1.44731997
 C     20  19  18     1.411449219951   114.86472197   340.05557580
 C     21  20  19     1.391505459673   121.22377482    18.56770682
 C     16  15  14     1.412287336628   115.56190921   341.95278085
 C     23  16  15     1.393873346685   120.85180166    18.04769644
 H      3   2   1     1.085477743162   119.77548923    27.83977084
 H      4   3   2     1.085118631856   117.61197089   166.63199232
 H      7   6   5     1.086806978861   120.16991484    33.66006576
 H      8   7   6     1.086244357085   117.89786599   169.90672567
 H     10   9   8     1.084812038696   120.36102012   186.47784034
 H     11  10   9     1.085516141474   117.67890333   166.52263520
 H     12   5   4     1.086981260832   120.09385070   188.74292359
 H     13  12   5     1.087235191943   118.51411844   170.66941343
 H     14   1   2     1.085513554683   119.78014562    27.83375051
 H     15  14   1     1.085318138105   117.69754836   166.38345461
 H     18  17   9     1.085629663099   120.16785925   153.82192392
 H     19  18  17     1.085500427499   117.64852262   170.34729424
 H     21  20  19     1.085732674879   120.24810545   187.64497003
 H     22  21  20     1.085990304745   117.87854325   170.80157455
 H     23  16  15     1.087127396306   120.05356758   188.69630624
 H     24  23  16     1.087275452036   118.52651487   170.69283044
 H     16  15  14     1.097131811766   121.81624251   172.01816672
 H     17   9   8     1.097059356212   160.78907701   289.66367687

---------------------------
INTERNAL COORDINATES (A.U.)
---------------------------
 C      0   0   0     0.000000000000     0.00000000     0.00000000
 C      1   0   0     2.823955878008     0.00000000     0.00000000
 C      2   1   0     2.661345241080   116.94496459     0.00000000
 C      3   2   1     2.627412639951   121.01891143   221.70024825
 C      4   3   2     2.662120115612   121.05545133     0.07249460
 C      5   4   3     2.823659192902   117.57626787   138.63400384
 C      6   5   4     2.667808161485   122.13877833    19.08522926
 C      7   6   5     2.631862737358   120.88195950   223.47838203
 C      8   7   6     2.669715851211   121.10780469   359.55302890
 C      9   8   7     2.664831425922   114.99215638   341.43887717
 C     10   9   8     2.627168054342   121.10146959    19.19853473
 C      5   4   3     2.669257356755   115.47458631   341.92445393
 C     12   5   4     2.633965175629   120.90006211    18.09087082
 C      1   2   3     2.661357337086   116.95709806   129.49536763
 C     14   1   2     2.627898834617   120.98634117   221.81155938
 C     15  14   1     2.661722285802   121.01986464     0.02353366
 C      9   8   7     7.839600252708   115.85174207   111.27972394
 C     17   9   8     2.665674805880    61.71124392   183.07449213
 C     18  17   9     2.628509403343   121.21814005   345.45925276
 C     19  18  17     2.666823947699   120.95677612     1.44731997
 C     20  19  18     2.667252477644   114.86472197   340.05557580
 C     21  20  19     2.629564232638   121.22377482    18.56770682
 C     16  15  14     2.668836288632   115.56190921   341.95278085
 C     23  16  15     2.634038890608   120.85180166    18.04769644
 H      3   2   1     2.051255659043   119.77548923    27.83977084
 H      4   3   2     2.050577037022   117.61197089   166.63199232
 H      7   6   5     2.053767550481   120.16991484    33.66006576
 H      8   7   6     2.052704349409   117.89786599   169.90672567
 H     10   9   8     2.049997659916   120.36102012   186.47784034
 H     11  10   9     2.051328221336   117.67890333   166.52263520
 H     12   5   4     2.054096895677   120.09385070   188.74292359
 H     13  12   5     2.054576755934   118.51411844   170.66941343
 H     14   1   2     2.051323333010   119.78014562    27.83375051
 H     15  14   1     2.050954049196   117.69754836   166.38345461
 H     18  17   9     2.051542746118   120.16785925   153.82192392
 H     19  18  17     2.051298526227   117.64852262   170.34729424
 H     21  20  19     2.051737410171   120.24810545   187.64497003
 H     22  21  20     2.052224260062   117.87854325   170.80157455
 H     23  16  15     2.054373051702   120.05356758   188.69630624
 H     24  23  16     2.054652836483   118.52651487   170.69283044
 H     16  15  14     2.073278657051   121.81624251   172.01816672
 H     17   9   8     2.073141735897   160.78907701   289.66367687

---------------------
BASIS SET INFORMATION
---------------------
There are 2 groups of distinct atoms

 Group   1 Type C   : 6s3p contracted to 2s1p pattern {33/3}
 Group   2 Type H   : 3s contracted to 1s pattern {3}

Atom   0C    basis set group =>   1
Atom   1C    basis set group =>   1
Atom   2C    basis set group =>   1
Atom   3C    basis set group =>   1
Atom   4C    basis set group =>   1
Atom   5C    basis set group =>   1
Atom   6C    basis set group =>   1
Atom   7C    basis set group =>   1
Atom   8C    basis set group =>   1
Atom   9C    basis set group =>   1
Atom  10C    basis set group =>   1
Atom  11C    basis set group =>   1
Atom  12C    basis set group =>   1
Atom  13C    basis set group =>   1
Atom  14C    basis set group =>   1
Atom  15C    basis set group =>   1
Atom  16C    basis set group =>   1
Atom  17C    basis set group =>   1
Atom  18C    basis set group =>   1
Atom  19C    basis set group =>   1
Atom  20C    basis set group =>   1
Atom  21C    basis set group =>   1
Atom  22C    basis set group =>   1
Atom  23C    basis set group =>   1
Atom  24H    basis set group =>   2
Atom  25H    basis set group =>   2
Atom  26H    basis set group =>   2
Atom  27H    basis set group =>   2
Atom  28H    basis set group =>   2
Atom  29H    basis set group =>   2
Atom  30H    basis set group =>   2
Atom  31H    basis set group =>   2
Atom  32H    basis set group =>   2
Atom  33H    basis set group =>   2
Atom  34H    basis set group =>   2
Atom  35H    basis set group =>   2
Atom  36H    basis set group =>   2
Atom  37H    basis set group =>   2
Atom  38H    basis set group =>   2
Atom  39H    basis set group =>   2
Atom  40H    basis set group =>   2
Atom  41H    basis set group =>   2


           ************************************************************
           *        Program running with 28 parallel MPI-processes    *
           *              working on a common directory               *
           ************************************************************
------------------------------------------------------------------------------
                           ORCA GTO INTEGRAL CALCULATION
------------------------------------------------------------------------------

                         BASIS SET STATISTICS AND STARTUP INFO

 # of primitive gaussian shells          ...  270
 # of primitive gaussian functions       ...  414
 # of contracted shells                  ...   90
 # of contracted basis functions         ...  138
 Highest angular momentum                ...    1
 Maximum contraction depth               ...    3
 Integral package used                   ... LIBINT
 Integral threshhold            Thresh   ...  2.500e-11
 Primitive cut-off              TCut     ...  2.500e-12


------------------------------ INTEGRAL EVALUATION ----------------------------


 * One electron integrals 
 Pre-screening matrix                    ... done
 Shell pair data                         ... done (   0.004 sec)



           ************************************************************
           *        Program running with 28 parallel MPI-processes    *
           *              working on a common directory               *
           ************************************************************
-------------------------------------------------------------------------------
                                 ORCA SCF
-------------------------------------------------------------------------------

------------
SCF SETTINGS
------------
Hamiltonian:
 Density Functional     Method          .... DFT(GTOs)
 Exchange Functional    Exchange        .... B88
   X-Alpha parameter    XAlpha          ....  0.666667
   Becke's b parameter  XBeta           ....  0.004200
 Correlation Functional Correlation     .... LYP
 LDA part of GGA corr.  LDAOpt          .... VWN-5
 Gradients option       PostSCFGGA      .... off
 Hybrid DFT is turned on
   Fraction HF Exchange ScalHFX         ....  0.200000
   Scaling of DF-GGA-X  ScalDFX         ....  0.720000
   Scaling of DF-GGA-C  ScalDFC         ....  0.810000
   Scaling of DF-LDA-C  ScalLDAC        ....  1.000000
   Perturbative correction              ....  0.000000
   Density functional embedding theory  .... OFF
   NL short-range parameter             ....  4.800000


General Settings:
 Integral files         IntName         .... dummy2
 Hartree-Fock type      HFTyp           .... RHF
 Total Charge           Charge          ....    0
 Multiplicity           Mult            ....    1
 Number of Electrons    NEL             ....  162
 Basis Dimension        Dim             ....  138
 Nuclear Repulsion      ENuc            ....   1795.8684729905 Eh

Convergence Acceleration:
 DIIS                   CNVDIIS         .... on
   Start iteration      DIISMaxIt       ....    12
   Startup error        DIISStart       ....  0.200000
   # of expansion vecs  DIISMaxEq       ....     5
   Bias factor          DIISBfac        ....   1.050
   Max. coefficient     DIISMaxC        ....  10.000
 Newton-Raphson         CNVNR           .... off
 SOSCF                  CNVSOSCF        .... on
   Start iteration      SOSCFMaxIt      ....   150
   Startup grad/error   SOSCFStart      ....  0.003300
 Level Shifting         CNVShift        .... on
   Level shift para.    LevelShift      ....    0.2500
   Turn off err/grad.   ShiftErr        ....    0.0010
 Zerner damping         CNVZerner       .... off
 Static damping         CNVDamp         .... on
   Fraction old density DampFac         ....    0.7000
   Max. Damping (<1)    DampMax         ....    0.9800
   Min. Damping (>=0)   DampMin         ....    0.0000
   Turn off err/grad.   DampErr         ....    0.1000
 Fernandez-Rico         CNVRico         .... off

SCF Procedure:
 Maximum # iterations   MaxIter         ....   125
 SCF integral mode      SCFMode         .... Direct
   Integral package                     .... LIBINT
 Reset frequency        DirectResetFreq ....    20
 Integral Threshold     Thresh          ....  2.500e-11 Eh
 Primitive CutOff       TCut            ....  2.500e-12 Eh

Convergence Tolerance:
 Convergence Check Mode ConvCheckMode   .... Total+1el-Energy
 Convergence forced     ConvForced      .... 0
 Energy Change          TolE            ....  1.000e-08 Eh
 1-El. energy change                    ....  1.000e-05 Eh
 Orbital Gradient       TolG            ....  1.000e-05
 Orbital Rotation angle TolX            ....  1.000e-05
 DIIS Error             TolErr          ....  5.000e-07


Diagonalization of the overlap matrix:
Smallest eigenvalue                        ... 1.722e-01
Time for diagonalization                   ...    0.008 sec
Threshold for overlap eigenvalues          ... 1.000e-08
Number of eigenvalues below threshold      ... 0
Time for construction of square roots      ...    0.006 sec
Total time needed                          ...    0.014 sec

-------------------
DFT GRID GENERATION
-------------------

General Integration Accuracy     IntAcc      ...  4.340
Radial Grid Type                 RadialGrid  ... Gauss-Chebyshev
Angular Grid (max. acc.)         AngularGrid ... Lebedev-110
Angular grid pruning method      GridPruning ... 3 (G Style)
Weight generation scheme         WeightScheme... Becke
Basis function cutoff            BFCut       ...    1.0000e-11
Integration weight cutoff        WCut        ...    1.0000e-14
Grids for H and He will be reduced by one unit

# of grid points (after initial pruning)     ...  54036 (   0.0 sec)
# of grid points (after weights+screening)   ...  47858 (   0.1 sec)
nearest neighbour list constructed           ...    0.0 sec
Grid point re-assignment to atoms done       ...    0.0 sec
Grid point division into batches done        ...    0.1 sec
Reduced shell lists constructed in    0.2 sec

Total number of grid points                  ...    47858
Total number of batches                      ...      766
Average number of points per batch           ...       62
Average number of grid points per atom       ...     1139
Average number of shells per batch           ...    45.38 (50.42%)
Average number of basis functions per batch  ...    76.21 (55.22%)
Average number of large shells per batch     ...    32.41 (71.43%)
Average number of large basis fcns per batch ...    55.66 (73.03%)
Maximum spatial batch extension              ...  16.33,  6.70,  7.56 au
Average spatial batch extension              ...   0.10,  0.08,  0.08 au

Time for grid setup =    0.297 sec

------------------------------
INITIAL GUESS: MODEL POTENTIAL
------------------------------
Loading Hartree-Fock densities                     ... done
Calculating cut-offs                               ... done
Setting up the integral package                    ... done
Initializing the effective Hamiltonian             ... done
Starting the Coulomb interaction                   ... done (   0.0 sec)
Reading the grid                                   ... done
Mapping shells                                     ... done
Starting the XC term evaluation                    ... done (   0.0 sec)
  promolecular density results
     # of electrons  =    161.970120210
     EX              =   -128.697542571
     EC              =     -5.423492165
     EX+EC           =   -134.121034736
Transforming the Hamiltonian                       ... done (   0.0 sec)
Diagonalizing the Hamiltonian                      ... done (   0.0 sec)
Back transforming the eigenvectors                 ... done (   0.0 sec)
Now organizing SCF variables                       ... done
                      ------------------
                      INITIAL GUESS DONE (   0.5 sec)
                      ------------------
--------------
SCF ITERATIONS
--------------
ITER       Energy         Delta-E        Max-DP      RMS-DP      [F,P]     Damp
               ***  Starting incremental Fock matrix formation  ***
  0   -913.2631696271   0.000000000000 0.04192200  0.00192034  0.0717138 0.7000
  1   -913.3028850656  -0.039715438559 0.03345872  0.00151041  0.0458752 0.7000
                               ***Turning on DIIS***
  2   -913.3244800872  -0.021595021534 0.06598588  0.00296880  0.0252213 0.0000
  3   -913.3577893319  -0.033309244764 0.02196581  0.00100194  0.0157806 0.0000
                      *** Initiating the SOSCF procedure ***
                           *** Shutting down DIIS ***
                      *** Re-Reading the Fockian *** 
                      *** Removing any level shift *** 
ITER      Energy       Delta-E        Grad      Rot      Max-DP    RMS-DP
  4   -913.36272188  -0.0049325510  0.001503  0.001503  0.005013  0.000233
               *** Restarting incremental Fock matrix formation ***
  5   -913.36295478  -0.0002328941  0.000428  0.002255  0.003400  0.000102
  6   -913.36295328   0.0000014923  0.000502  0.000736  0.002284  0.000055
  7   -913.36296603  -0.0000127431  0.000143  0.000337  0.000607  0.000027
  8   -913.36296583   0.0000001951  0.000138  0.000208  0.000598  0.000016
  9   -913.36296680  -0.0000009638  0.000037  0.000175  0.000234  0.000008
 10   -913.36296679   0.0000000083  0.000043  0.000105  0.000107  0.000005
 11   -913.36296687  -0.0000000821  0.000007  0.000026  0.000051  0.000002
 12   -913.36296687   0.0000000001  0.000007  0.000010  0.000026  0.000001
                  ***Gradient check signals convergence***
              ***Rediagonalizing the Fockian in SOSCF/NRSCF***

               *****************************************************
               *                     SUCCESS                       *
               *           SCF CONVERGED AFTER  13 CYCLES          *
               *****************************************************

Setting up the final grid:

General Integration Accuracy     IntAcc      ...  4.670
Radial Grid Type                 RadialGrid  ... Gauss-Chebyshev
Angular Grid (max. acc.)         AngularGrid ... Lebedev-302
Angular grid pruning method      GridPruning ... 3 (G Style)
Weight generation scheme         WeightScheme... Becke
Basis function cutoff            BFCut       ...    1.0000e-11
Integration weight cutoff        WCut        ...    1.0000e-14
Grids for H and He will be reduced by one unit

# of grid points (after initial pruning)     ... 210180 (   0.0 sec)
# of grid points (after weights+screening)   ... 181681 (   0.2 sec)
nearest neighbour list constructed           ...    0.0 sec
Grid point re-assignment to atoms done       ...    0.0 sec
Grid point division into batches done        ...    0.6 sec
Reduced shell lists constructed in    0.7 sec

Total number of grid points                  ...   181681
Total number of batches                      ...     2860
Average number of points per batch           ...       63
Average number of grid points per atom       ...     4326
Average number of shells per batch           ...    43.71 (48.57%)
Average number of basis functions per batch  ...    73.69 (53.40%)
Average number of large shells per batch     ...    31.20 (71.38%)
Average number of large basis fcns per batch ...    54.01 (73.29%)
Maximum spatial batch extension              ...  13.48,  5.43,  6.14 au
Average spatial batch extension              ...   0.06,  0.05,  0.05 au

Final grid set up in    0.9 sec
Final integration                            ... done (   0.1 sec)
Change in XC energy                          ...    -0.001244096
Integrated number of electrons               ...   161.999803475
Previous integrated no of electrons          ...   161.987667405

----------------
TOTAL SCF ENERGY
----------------

Total Energy       :         -913.36421097 Eh          -24853.90373 eV

Components:
Nuclear Repulsion  :         1795.86847299 Eh           48868.06555 eV
Electronic Energy  :        -2709.23268396 Eh          -73721.96928 eV
One Electron Energy:        -4808.67450009 Eh         -130850.68547 eV
Two Electron Energy:         2099.44181612 Eh           57128.71618 eV

Virial components:
Potential Energy   :        -1812.29463267 Eh          -49315.04408 eV
Kinetic Energy     :          898.93042170 Eh           24461.14035 eV
Virial Ratio       :            2.01605663


DFT components:
N(Alpha)           :       80.999901737646 electrons
N(Beta)            :       80.999901737646 electrons
N(Total)           :      161.999803475293 electrons
E(X)               :     -103.642388964356 Eh       
E(C)               :       -6.392007085042 Eh       
E(XC)              :     -110.034396049398 Eh       
DFET-embed. en.    :        0.000000000000 Eh       

---------------
SCF CONVERGENCE
---------------

  Last Energy change         ...   -5.0429e-09  Tolerance :   1.0000e-08
  Last MAX-Density change    ...    4.3358e-06  Tolerance :   1.0000e-07
  Last RMS-Density change    ...    1.3174e-07  Tolerance :   5.0000e-09
  Last Orbital Gradient      ...    3.9971e-07  Tolerance :   1.0000e-05
  Last Orbital Rotation      ...    1.9765e-06  Tolerance :   1.0000e-05

             **** THE GBW FILE WAS UPDATED (dummy2.gbw) ****
             **** DENSITY FILE WAS UPDATED (dummy2.scfp) ****
             **** ENERGY FILE WAS UPDATED (dummy2.en.tmp) ****
             **** THE GBW FILE WAS UPDATED (dummy2.gbw) ****
             **** DENSITY FILE WAS UPDATED (dummy2.scfp) ****
----------------
ORBITAL ENERGIES
----------------

  NO   OCC          E(Eh)            E(eV) 
   0   2.0000     -10.018917      -272.6286 
   1   2.0000     -10.018234      -272.6100 
   2   2.0000     -10.017678      -272.5949 
   3   2.0000     -10.017427      -272.5881 
   4   2.0000     -10.016719      -272.5688 
   5   2.0000     -10.016677      -272.5676 
   6   2.0000     -10.001978      -272.1677 
   7   2.0000     -10.001971      -272.1675 
   8   2.0000     -10.001803      -272.1629 
   9   2.0000     -10.001736      -272.1611 
  10   2.0000     -10.001697      -272.1600 
  11   2.0000     -10.001358      -272.1508 
  12   2.0000     -10.001318      -272.1497 
  13   2.0000     -10.001146      -272.1450 
  14   2.0000     -10.001124      -272.1444 
  15   2.0000     -10.001122      -272.1444 
  16   2.0000     -10.001101      -272.1438 
  17   2.0000     -10.000969      -272.1402 
  18   2.0000     -10.000177      -272.1187 
  19   2.0000     -10.000165      -272.1183 
  20   2.0000      -9.999492      -272.1000 
  21   2.0000      -9.998931      -272.0848 
  22   2.0000      -9.998799      -272.0811 
  23   2.0000      -9.998767      -272.0803 
  24   2.0000      -0.828478       -22.5440 
  25   2.0000      -0.818810       -22.2810 
  26   2.0000      -0.804723       -21.8976 
  27   2.0000      -0.791616       -21.5410 
  28   2.0000      -0.742863       -20.2143 
  29   2.0000      -0.715650       -19.4738 
  30   2.0000      -0.708015       -19.2661 
  31   2.0000      -0.702493       -19.1158 
  32   2.0000      -0.695951       -18.9378 
  33   2.0000      -0.691697       -18.8220 
  34   2.0000      -0.684212       -18.6184 
  35   2.0000      -0.654278       -17.8038 
  36   2.0000      -0.589483       -16.0407 
  37   2.0000      -0.581029       -15.8106 
  38   2.0000      -0.564766       -15.3681 
  39   2.0000      -0.563460       -15.3325 
  40   2.0000      -0.544958       -14.8291 
  41   2.0000      -0.539896       -14.6913 
  42   2.0000      -0.528820       -14.3899 
  43   2.0000      -0.525294       -14.2940 
  44   2.0000      -0.492193       -13.3932 
  45   2.0000      -0.480270       -13.0688 
  46   2.0000      -0.459215       -12.4959 
  47   2.0000      -0.440646       -11.9906 
  48   2.0000      -0.437187       -11.8965 
  49   2.0000      -0.419692       -11.4204 
  50   2.0000      -0.405154       -11.0248 
  51   2.0000      -0.402208       -10.9446 
  52   2.0000      -0.399405       -10.8684 
  53   2.0000      -0.390790       -10.6339 
  54   2.0000      -0.382589       -10.4108 
  55   2.0000      -0.379884       -10.3372 
  56   2.0000      -0.375814       -10.2264 
  57   2.0000      -0.373003       -10.1499 
  58   2.0000      -0.369303       -10.0493 
  59   2.0000      -0.366618        -9.9762 
  60   2.0000      -0.363280        -9.8853 
  61   2.0000      -0.351045        -9.5524 
  62   2.0000      -0.343717        -9.3530 
  63   2.0000      -0.331738        -9.0271 
  64   2.0000      -0.327064        -8.8999 
  65   2.0000      -0.310219        -8.4415 
  66   2.0000      -0.295110        -8.0304 
  67   2.0000      -0.291973        -7.9450 
  68   2.0000      -0.287021        -7.8102 
  69   2.0000      -0.280612        -7.6358 
  70   2.0000      -0.277706        -7.5568 
  71   2.0000      -0.273793        -7.4503 
  72   2.0000      -0.270639        -7.3645 
  73   2.0000      -0.231948        -6.3116 
  74   2.0000      -0.199648        -5.4327 
  75   2.0000      -0.196531        -5.3479 
  76   2.0000      -0.192899        -5.2491 
  77   2.0000      -0.188409        -5.1269 
  78   2.0000      -0.185971        -5.0605 
  79   2.0000      -0.159598        -4.3429 
  80   2.0000      -0.124488        -3.3875 
  81   0.0000       0.027174         0.7394 
  82   0.0000       0.062114         1.6902 
  83   0.0000       0.082721         2.2510 
  84   0.0000       0.090017         2.4495 
  85   0.0000       0.099825         2.7164 
  86   0.0000       0.100387         2.7317 
  87   0.0000       0.107753         2.9321 
  88   0.0000       0.126089         3.4311 
  89   0.0000       0.203729         5.5438 
  90   0.0000       0.209678         5.7056 
  91   0.0000       0.226065         6.1515 
  92   0.0000       0.226536         6.1644 
  93   0.0000       0.357546         9.7293 
  94   0.0000       0.360035         9.7971 
  95   0.0000       0.362359         9.8603 
  96   0.0000       0.379065        10.3149 
  97   0.0000       0.385112        10.4794 
  98   0.0000       0.391069        10.6415 
  99   0.0000       0.413098        11.2410 
 100   0.0000       0.420609        11.4454 
 101   0.0000       0.426514        11.6060 
 102   0.0000       0.432775        11.7764 
 103   0.0000       0.436006        11.8643 
 104   0.0000       0.440946        11.9988 
 105   0.0000       0.446435        12.1481 
 106   0.0000       0.454733        12.3739 
 107   0.0000       0.464502        12.6397 
 108   0.0000       0.464972        12.6525 
 109   0.0000       0.471522        12.8308 
 110   0.0000       0.485460        13.2100 
 111   0.0000       0.489568        13.3218 
 112   0.0000       0.497135        13.5277 
 113   0.0000       0.514530        14.0011 
 114   0.0000       0.527970        14.3668 
 115   0.0000       0.537702        14.6316 
 116   0.0000       0.555497        15.1158 
 117   0.0000       0.567404        15.4399 
 118   0.0000       0.570278        15.5181 
 119   0.0000       0.584556        15.9066 
 120   0.0000       0.589867        16.0511 
 121   0.0000       0.599412        16.3108 
 122   0.0000       0.606201        16.4956 
 123   0.0000       0.614457        16.7202 
 124   0.0000       0.618158        16.8209 
 125   0.0000       0.620510        16.8849 
 126   0.0000       0.621307        16.9066 
 127   0.0000       0.629774        17.1370 
 128   0.0000       0.641601        17.4588 
 129   0.0000       0.645992        17.5783 
 130   0.0000       0.717377        19.5208 
 131   0.0000       0.744084        20.2475 
 132   0.0000       0.768561        20.9136 
 133   0.0000       0.773594        21.0506 
 134   0.0000       0.792244        21.5581 
 135   0.0000       0.795075        21.6351 
 136   0.0000       0.813482        22.1360 
 137   0.0000       0.826455        22.4890 

                    ********************************
                    * MULLIKEN POPULATION ANALYSIS *
                    ********************************

-----------------------
MULLIKEN ATOMIC CHARGES
-----------------------
   0 C :   -0.001794
   1 C :   -0.003897
   2 C :   -0.077167
   3 C :   -0.077233
   4 C :   -0.004257
   5 C :   -0.003939
   6 C :   -0.080259
   7 C :   -0.078430
   8 C :   -0.004531
   9 C :   -0.077526
  10 C :   -0.077594
  11 C :   -0.080352
  12 C :   -0.080939
  13 C :   -0.077855
  14 C :   -0.081014
  15 C :   -0.079351
  16 C :   -0.079420
  17 C :   -0.080654
  18 C :   -0.079406
  19 C :   -0.002275
  20 C :   -0.079545
  21 C :   -0.080053
  22 C :   -0.079986
  23 C :   -0.082442
  24 H :    0.083142
  25 H :    0.082385
  26 H :    0.080358
  27 H :    0.080608
  28 H :    0.081179
  29 H :    0.081653
  30 H :    0.080400
  31 H :    0.080771
  32 H :    0.081002
  33 H :    0.079966
  34 H :    0.079509
  35 H :    0.078683
  36 H :    0.079256
  37 H :    0.079560
  38 H :    0.079605
  39 H :    0.079078
  40 H :    0.081248
  41 H :    0.081517
Sum of atomic charges:   -0.0000000

--------------------------------
MULLIKEN REDUCED ORBITAL CHARGES
--------------------------------
  0 C s       :     3.134775  s :     3.134775
      pz      :     0.954742  p :     2.867020
      px      :     0.980997
      py      :     0.931281
  1 C s       :     3.133124  s :     3.133124
      pz      :     0.953232  p :     2.870772
      px      :     0.980494
      py      :     0.937045
  2 C s       :     3.142713  s :     3.142713
      pz      :     0.975405  p :     2.934454
      px      :     0.966977
      py      :     0.992072
  3 C s       :     3.142075  s :     3.142075
      pz      :     0.977875  p :     2.935157
      px      :     0.969856
      py      :     0.987427
  4 C s       :     3.132905  s :     3.132905
      pz      :     0.953891  p :     2.871352
      px      :     0.921450
      py      :     0.996011
  5 C s       :     3.133227  s :     3.133227
      pz      :     0.952553  p :     2.870711
      px      :     0.924006
      py      :     0.994153
  6 C s       :     3.141278  s :     3.141278
      pz      :     0.974788  p :     2.938981
      px      :     0.974725
      py      :     0.989468
  7 C s       :     3.141712  s :     3.141712
      pz      :     0.972611  p :     2.936718
      px      :     0.984708
      py      :     0.979399
  8 C s       :     3.132991  s :     3.132991
      pz      :     0.952998  p :     2.871540
      px      :     0.992069
      py      :     0.926474
  9 C s       :     3.141113  s :     3.141113
      pz      :     0.978154  p :     2.936413
      px      :     0.975563
      py      :     0.982696
 10 C s       :     3.141880  s :     3.141880
      pz      :     0.973198  p :     2.935714
      px      :     0.978181
      py      :     0.984336
 11 C s       :     3.141927  s :     3.141927
      pz      :     0.973273  p :     2.938425
      px      :     0.963942
      py      :     1.001209
 12 C s       :     3.141770  s :     3.141770
      pz      :     0.974733  p :     2.939168
      px      :     0.974130
      py      :     0.990305
 13 C s       :     3.141748  s :     3.141748
      pz      :     0.975486  p :     2.936107
      px      :     0.997550
      py      :     0.963071
 14 C s       :     3.142603  s :     3.142603
      pz      :     0.977918  p :     2.938411
      px      :     0.996225
      py      :     0.964269
 15 C s       :     3.150940  s :     3.150940
      pz      :     0.952447  p :     2.928411
      px      :     0.990094
      py      :     0.985871
 16 C s       :     3.151773  s :     3.151773
      pz      :     0.949372  p :     2.927647
      px      :     0.987515
      py      :     0.990760
 17 C s       :     3.142893  s :     3.142893
      pz      :     0.976369  p :     2.937761
      px      :     0.985544
      py      :     0.975848
 18 C s       :     3.139825  s :     3.139825
      pz      :     0.975388  p :     2.939581
      px      :     1.000259
      py      :     0.963934
 19 C s       :     3.134819  s :     3.134819
      pz      :     0.955229  p :     2.867456
      px      :     0.989130
      py      :     0.923098
 20 C s       :     3.140215  s :     3.140215
      pz      :     0.970588  p :     2.939330
      px      :     1.002897
      py      :     0.965846
 21 C s       :     3.143312  s :     3.143312
      pz      :     0.980986  p :     2.936741
      px      :     0.983511
      py      :     0.972245
 22 C s       :     3.144310  s :     3.144310
      pz      :     0.983727  p :     2.935675
      px      :     0.985106
      py      :     0.966842
 23 C s       :     3.140705  s :     3.140705
      pz      :     0.972585  p :     2.941737
      px      :     1.012378
      py      :     0.956775
 24 H s       :     0.916858  s :     0.916858
 25 H s       :     0.917615  s :     0.917615
 26 H s       :     0.919642  s :     0.919642
 27 H s       :     0.919392  s :     0.919392
 28 H s       :     0.918821  s :     0.918821
 29 H s       :     0.918347  s :     0.918347
 30 H s       :     0.919600  s :     0.919600
 31 H s       :     0.919229  s :     0.919229
 32 H s       :     0.918998  s :     0.918998
 33 H s       :     0.920034  s :     0.920034
 34 H s       :     0.920491  s :     0.920491
 35 H s       :     0.921317  s :     0.921317
 36 H s       :     0.920744  s :     0.920744
 37 H s       :     0.920440  s :     0.920440
 38 H s       :     0.920395  s :     0.920395
 39 H s       :     0.920922  s :     0.920922
 40 H s       :     0.918752  s :     0.918752
 41 H s       :     0.918483  s :     0.918483


                     *******************************
                     * LOEWDIN POPULATION ANALYSIS *
                     *******************************

----------------------
LOEWDIN ATOMIC CHARGES
----------------------
   0 C :    0.007067
   1 C :    0.003030
   2 C :   -0.044066
   3 C :   -0.044351
   4 C :    0.002688
   5 C :    0.003187
   6 C :   -0.047725
   7 C :   -0.045724
   8 C :    0.002185
   9 C :   -0.045062
  10 C :   -0.044805
  11 C :   -0.047501
  12 C :   -0.048101
  13 C :   -0.045335
  14 C :   -0.044009
  15 C :   -0.044422
  16 C :   -0.044351
  17 C :   -0.043643
  18 C :   -0.047733
  19 C :    0.006594
  20 C :   -0.047822
  21 C :   -0.042960
  22 C :   -0.042691
  23 C :   -0.050544
  24 H :    0.046313
  25 H :    0.045863
  26 H :    0.044273
  27 H :    0.044571
  28 H :    0.045162
  29 H :    0.045251
  30 H :    0.044283
  31 H :    0.044490
  32 H :    0.044493
  33 H :    0.043043
  34 H :    0.042703
  35 H :    0.043055
  36 H :    0.043373
  37 H :    0.042718
  38 H :    0.042848
  39 H :    0.043011
  40 H :    0.045187
  41 H :    0.045458

-------------------------------
LOEWDIN REDUCED ORBITAL CHARGES
-------------------------------
  0 C s       :     3.028307  s :     3.028307
      pz      :     1.002731  p :     2.964627
      px      :     0.986105
      py      :     0.975790
  1 C s       :     3.027274  s :     3.027274
      pz      :     1.002132  p :     2.969696
      px      :     0.998928
      py      :     0.968635
  2 C s       :     3.022817  s :     3.022817
      pz      :     1.010561  p :     3.021249
      px      :     1.002333
      py      :     1.008356
  3 C s       :     3.022311  s :     3.022311
      pz      :     1.011955  p :     3.022040
      px      :     1.009703
      py      :     1.000383
  4 C s       :     3.027146  s :     3.027146
      pz      :     1.002416  p :     2.970165
      px      :     0.967331
      py      :     1.000418
  5 C s       :     3.027322  s :     3.027322
      pz      :     1.003547  p :     2.969491
      px      :     0.965985
      py      :     0.999959
  6 C s       :     3.021600  s :     3.021600
      pz      :     1.007788  p :     3.026125
      px      :     1.011214
      py      :     1.007123
  7 C s       :     3.022114  s :     3.022114
      pz      :     1.007438  p :     3.023610
      px      :     1.006929
      py      :     1.009244
  8 C s       :     3.027475  s :     3.027475
      pz      :     1.003644  p :     2.970340
      px      :     1.002214
      py      :     0.964482
  9 C s       :     3.021550  s :     3.021550
      pz      :     1.012935  p :     3.023512
      px      :     1.001156
      py      :     1.009421
 10 C s       :     3.022196  s :     3.022196
      pz      :     1.010311  p :     3.022609
      px      :     1.009479
      py      :     1.002819
 11 C s       :     3.022160  s :     3.022160
      pz      :     1.005241  p :     3.025341
      px      :     1.008399
      py      :     1.011701
 12 C s       :     3.021921  s :     3.021921
      pz      :     1.005916  p :     3.026180
      px      :     1.006118
      py      :     1.014146
 13 C s       :     3.022133  s :     3.022133
      pz      :     1.010431  p :     3.023202
      px      :     1.001724
      py      :     1.011047
 14 C s       :     3.020478  s :     3.020478
      pz      :     1.011766  p :     3.023532
      px      :     1.000582
      py      :     1.011184
 15 C s       :     3.029336  s :     3.029336
      pz      :     1.003491  p :     3.015086
      px      :     0.999713
      py      :     1.011883
 16 C s       :     3.029993  s :     3.029993
      pz      :     1.004848  p :     3.014358
      px      :     0.998452
      py      :     1.011058
 17 C s       :     3.021000  s :     3.021000
      pz      :     1.011921  p :     3.022643
      px      :     0.997857
      py      :     1.012864
 18 C s       :     3.020615  s :     3.020615
      pz      :     1.010464  p :     3.027119
      px      :     1.006164
      py      :     1.010491
 19 C s       :     3.028564  s :     3.028564
      pz      :     1.006363  p :     2.964841
      px      :     0.989353
      py      :     0.969126
 20 C s       :     3.021066  s :     3.021066
      pz      :     1.007740  p :     3.026756
      px      :     1.008125
      py      :     1.010891
 21 C s       :     3.021400  s :     3.021400
      pz      :     1.013418  p :     3.021560
      px      :     0.997119
      py      :     1.011023
 22 C s       :     3.022451  s :     3.022451
      pz      :     1.012460  p :     3.020240
      px      :     0.996629
      py      :     1.011152
 23 C s       :     3.021217  s :     3.021217
      pz      :     1.004007  p :     3.029327
      px      :     1.017353
      py      :     1.007967
 24 H s       :     0.953687  s :     0.953687
 25 H s       :     0.954137  s :     0.954137
 26 H s       :     0.955727  s :     0.955727
 27 H s       :     0.955429  s :     0.955429
 28 H s       :     0.954838  s :     0.954838
 29 H s       :     0.954749  s :     0.954749
 30 H s       :     0.955717  s :     0.955717
 31 H s       :     0.955510  s :     0.955510
 32 H s       :     0.955507  s :     0.955507
 33 H s       :     0.956957  s :     0.956957
 34 H s       :     0.957297  s :     0.957297
 35 H s       :     0.956945  s :     0.956945
 36 H s       :     0.956627  s :     0.956627
 37 H s       :     0.957282  s :     0.957282
 38 H s       :     0.957152  s :     0.957152
 39 H s       :     0.956989  s :     0.956989
 40 H s       :     0.954813  s :     0.954813
 41 H s       :     0.954542  s :     0.954542


                      *****************************
                      * MAYER POPULATION ANALYSIS *
                      *****************************

  NA   - Mulliken gross atomic population
  ZA   - Total nuclear charge
  QA   - Mulliken gross atomic charge
  VA   - Mayer's total valence
  BVA  - Mayer's bonded valence
  FA   - Mayer's free valence

  ATOM       NA         ZA         QA         VA         BVA        FA
  0 C      6.0018     6.0000    -0.0018     3.9720     3.9720     0.0000
  1 C      6.0039     6.0000    -0.0039     3.9721     3.9721     0.0000
  2 C      6.0772     6.0000    -0.0772     3.9714     3.9714    -0.0000
  3 C      6.0772     6.0000    -0.0772     3.9717     3.9717     0.0000
  4 C      6.0043     6.0000    -0.0043     3.9723     3.9723     0.0000
  5 C      6.0039     6.0000    -0.0039     3.9723     3.9723    -0.0000
  6 C      6.0803     6.0000    -0.0803     3.9721     3.9721    -0.0000
  7 C      6.0784     6.0000    -0.0784     3.9722     3.9722    -0.0000
  8 C      6.0045     6.0000    -0.0045     3.9722     3.9722    -0.0000
  9 C      6.0775     6.0000    -0.0775     3.9723     3.9723    -0.0000
 10 C      6.0776     6.0000    -0.0776     3.9719     3.9719    -0.0000
 11 C      6.0804     6.0000    -0.0804     3.9721     3.9721     0.0000
 12 C      6.0809     6.0000    -0.0809     3.9720     3.9720     0.0000
 13 C      6.0779     6.0000    -0.0779     3.9719     3.9719    -0.0000
 14 C      6.0810     6.0000    -0.0810     3.9719     3.9719     0.0000
 15 C      6.0794     6.0000    -0.0794     3.9682     3.9682     0.0000
 16 C      6.0794     6.0000    -0.0794     3.9678     3.9678    -0.0000
 17 C      6.0807     6.0000    -0.0807     3.9720     3.9720     0.0000
 18 C      6.0794     6.0000    -0.0794     3.9728     3.9728     0.0000
 19 C      6.0023     6.0000    -0.0023     3.9722     3.9722     0.0000
 20 C      6.0795     6.0000    -0.0795     3.9726     3.9726     0.0000
 21 C      6.0801     6.0000    -0.0801     3.9719     3.9719     0.0000
 22 C      6.0800     6.0000    -0.0800     3.9719     3.9719    -0.0000
 23 C      6.0824     6.0000    -0.0824     3.9722     3.9722     0.0000
 24 H      0.9169     1.0000     0.0831     0.9931     0.9931     0.0000
 25 H      0.9176     1.0000     0.0824     0.9932     0.9932    -0.0000
 26 H      0.9196     1.0000     0.0804     0.9935     0.9935    -0.0000
 27 H      0.9194     1.0000     0.0806     0.9935     0.9935    -0.0000
 28 H      0.9188     1.0000     0.0812     0.9934     0.9934    -0.0000
 29 H      0.9183     1.0000     0.0817     0.9933     0.9933    -0.0000
 30 H      0.9196     1.0000     0.0804     0.9935     0.9935     0.0000
 31 H      0.9192     1.0000     0.0808     0.9935     0.9935    -0.0000
 32 H      0.9190     1.0000     0.0810     0.9934     0.9934    -0.0000
 33 H      0.9200     1.0000     0.0800     0.9936     0.9936     0.0000
 34 H      0.9205     1.0000     0.0795     0.9937     0.9937     0.0000
 35 H      0.9213     1.0000     0.0787     0.9938     0.9938     0.0000
 36 H      0.9207     1.0000     0.0793     0.9937     0.9937     0.0000
 37 H      0.9204     1.0000     0.0796     0.9937     0.9937    -0.0000
 38 H      0.9204     1.0000     0.0796     0.9937     0.9937     0.0000
 39 H      0.9209     1.0000     0.0791     0.9937     0.9937     0.0000
 40 H      0.9188     1.0000     0.0812     0.9934     0.9934     0.0000
 41 H      0.9185     1.0000     0.0815     0.9934     0.9934    -0.0000

  Mayer bond orders larger than 0.100000
B(  0-C ,  1-C ) :   1.0537 B(  0-C , 13-C ) :   1.3718 B(  0-C , 15-C ) :   0.1155 
B(  0-C , 23-C ) :   1.3602 B(  1-C ,  2-C ) :   1.3603 B(  1-C ,  4-C ) :   0.1077 
B(  1-C , 12-C ) :   1.3467 B(  2-C ,  3-C ) :   1.4712 B(  2-C , 24-H ) :   0.9574 
B(  3-C ,  4-C ) :   1.3584 B(  3-C , 25-H ) :   0.9572 B(  4-C ,  5-C ) :   1.0617 
B(  4-C , 11-C ) :   1.3436 B(  5-C ,  6-C ) :   1.3441 B(  5-C ,  8-C ) :   0.1073 
B(  5-C , 10-C ) :   1.3539 B(  6-C ,  7-C ) :   1.4906 B(  6-C , 26-H ) :   0.9589 
B(  7-C ,  8-C ) :   1.3451 B(  7-C , 27-H ) :   0.9581 B(  8-C ,  9-C ) :   1.3538 
B(  8-C , 19-C ) :   1.0635 B(  9-C , 10-C ) :   1.4789 B(  9-C , 28-H ) :   0.9570 
B( 10-C , 29-H ) :   0.9575 B( 11-C , 12-C ) :   1.4903 B( 11-C , 30-H ) :   0.9591 
B( 12-C , 31-H ) :   0.9593 B( 13-C , 14-C ) :   1.4512 B( 13-C , 22-C ) :   0.1030 
B( 13-C , 32-H ) :   0.9584 B( 14-C , 15-C ) :   1.4196 B( 14-C , 23-C ) :   0.1038 
B( 14-C , 33-H ) :   0.9626 B( 15-C , 22-C ) :   1.4068 B( 15-C , 40-H ) :   0.9634 
B( 16-C , 17-C ) :   1.4103 B( 16-C , 19-C ) :   0.1151 B( 16-C , 21-C ) :   1.4108 
B( 16-C , 41-H ) :   0.9633 B( 17-C , 18-C ) :   1.4637 B( 17-C , 20-C ) :   0.1010 
B( 17-C , 34-H ) :   0.9626 B( 18-C , 19-C ) :   1.3600 B( 18-C , 21-C ) :   0.1027 
B( 18-C , 35-H ) :   0.9584 B( 19-C , 20-C ) :   1.3628 B( 20-C , 21-C ) :   1.4613 
B( 20-C , 36-H ) :   0.9584 B( 21-C , 37-H ) :   0.9628 B( 22-C , 23-C ) :   1.4654 
B( 22-C , 38-H ) :   0.9629 B( 23-C , 39-H ) :   0.9601 

-------
TIMINGS
-------

Total SCF time: 0 days 0 hours 0 min 6 sec 

Total time                  ....       6.740 sec
Sum of individual times     ....       6.319 sec  ( 93.8%)

Fock matrix formation       ....       4.726 sec  ( 70.1%)
  XC integration            ....       0.476 sec  ( 10.1% of F)
    Basis function eval.    ....       0.161 sec  ( 33.8% of XC)
    Density eval.           ....       0.037 sec  (  7.9% of XC)
    XC-Functional eval.     ....       0.021 sec  (  4.3% of XC)
    XC-Potential eval.      ....       0.032 sec  (  6.8% of XC)
Diagonalization             ....       0.056 sec  (  0.8%)
Density matrix formation    ....       0.006 sec  (  0.1%)
Population analysis         ....       0.012 sec  (  0.2%)
Initial guess               ....       0.243 sec  (  3.6%)
Orbital Transformation      ....       0.000 sec  (  0.0%)
Orbital Orthonormalization  ....       0.000 sec  (  0.0%)
DIIS solution               ....       0.021 sec  (  0.3%)
SOSCF solution              ....       0.031 sec  (  0.5%)
Grid generation             ....       1.223 sec  ( 18.1%)

-------------------------   --------------------
FINAL SINGLE POINT ENERGY      -913.364210971131
-------------------------   --------------------



           ************************************************************
           *        Program running with 28 parallel MPI-processes    *
           *              working on a common directory               *
           ************************************************************
------------------------------------------------------------------------------
                         ORCA SCF GRADIENT CALCULATION
------------------------------------------------------------------------------

Gradient of the Kohn-Sham DFT energy:
Kohn-Sham wavefunction type      ... RKS
Hartree-Fock exchange scaling    ...    0.200
Number of operators              ...    1
Number of atoms                  ...   42
Basis set dimensions             ...  138
Integral neglect threshold       ... 2.5e-11
Integral primitive cutoff        ... 2.5e-12

Nuclear repulsion gradient       ... done
One Electron Gradient            ... done
Pre-screening matrix             ... done
Starting the two electron gradient:
Two electron gradient done
Exchange-correlation gradient    ... done

------------------
CARTESIAN GRADIENT
------------------

   1   C   :    0.007693016    0.001085618   -0.000289799
   2   C   :    0.008209654   -0.005292394    0.000051834
   3   C   :   -0.000091393   -0.000026567    0.007519460
   4   C   :    0.000636186    0.000269397    0.007701764
   5   C   :   -0.001528411   -0.008041144    0.000940657
   6   C   :    0.000005110   -0.007886287    0.000209872
   7   C   :   -0.003581527   -0.001258759    0.007224703
   8   C   :   -0.001375152   -0.003283898    0.006979877
   9   C   :   -0.009223182   -0.002990109   -0.000903410
  10   C   :    0.000374659   -0.001366148   -0.007364375
  11   C   :   -0.000921034   -0.000562242   -0.007935051
  12   C   :    0.003707334   -0.002819893   -0.006983887
  13   C   :    0.000444624   -0.004405127   -0.006476064
  14   C   :   -0.005874263   -0.003865989   -0.005951158
  15   C   :   -0.014908613    0.012551045    0.003189189
  16   C   :    0.025906349   -0.000809943   -0.005920165
  17   C   :   -0.027875999    0.004454289   -0.000616328
  18   C   :    0.015643027    0.007593023    0.000578486
  19   C   :    0.002927050   -0.003658673   -0.007932217
  20   C   :   -0.006804894    0.001875181    0.000103580
  21   C   :    0.001366899   -0.004949175    0.007636625
  22   C   :    0.014941225    0.008269914    0.001049964
  23   C   :   -0.009946826    0.008741797    0.001960410
  24   C   :   -0.000333322   -0.002790635    0.008446182
  25   H   :    0.003649653    0.004916595    0.007937664
  26   H   :   -0.005807023   -0.000504757    0.008262438
  27   H   :    0.002738496   -0.003369138    0.008276216
  28   H   :   -0.004597838    0.003002427    0.007805454
  29   H   :   -0.002700534    0.004651063   -0.008482363
  30   H   :    0.005200199   -0.002855012   -0.007956419
  31   H   :   -0.003448223   -0.003845780   -0.007746527
  32   H   :    0.004563854    0.000703208   -0.008009605
  33   H   :   -0.001123874   -0.006172032   -0.007730330
  34   H   :   -0.000340723    0.006884103   -0.010543643
  35   H   :    0.000134666    0.008177166   -0.008798665
  36   H   :   -0.001266713   -0.004977299   -0.008202697
  37   H   :   -0.002203290   -0.005584816    0.007593800
  38   H   :    0.000743540    0.006245235    0.009091695
  39   H   :    0.002794709    0.006244332    0.007395175
  40   H   :    0.002253545   -0.004374246    0.007762111
[...]
   5 C :   -0.003635
   6 C :   -0.078389
   7 C :   -0.078470
   8 C :   -0.003348
   9 C :   -0.078572
  10 C :   -0.078307
  11 C :   -0.078365
  12 C :   -0.078584
  13 C :   -0.077849
  14 C :   -0.079005
  15 C :   -0.078227
  16 C :   -0.078211
  17 C :   -0.079040
  18 C :   -0.077846
  19 C :   -0.003561
  20 C :   -0.077835
  21 C :   -0.079076
  22 C :   -0.079072
  23 C :   -0.077756
  24 H :    0.079845
  25 H :    0.079759
  26 H :    0.079757
  27 H :    0.079808
  28 H :    0.079862
  29 H :    0.079713
  30 H :    0.079737
  31 H :    0.079862
  32 H :    0.079373
  33 H :    0.079428
  34 H :    0.079430
  35 H :    0.079365
  36 H :    0.079360
  37 H :    0.079447
  38 H :    0.079437
  39 H :    0.079325
  40 H :    0.079550
  41 H :    0.079547
Sum of atomic charges:   -0.0000000

--------------------------------
MULLIKEN REDUCED ORBITAL CHARGES
--------------------------------
  0 C s       :     3.139239  s :     3.139239
      pz      :     0.949042  p :     2.864389
      px      :     0.923289
      py      :     0.992058
  1 C s       :     3.139369  s :     3.139369
      pz      :     0.949962  p :     2.863914
      px      :     0.924052
      py      :     0.989901
  2 C s       :     3.149921  s :     3.149921
      pz      :     0.972308  p :     2.928628
      px      :     0.955781
      py      :     1.000540
  3 C s       :     3.149978  s :     3.149978
      pz      :     0.971171  p :     2.928440
      px      :     0.955020
      py      :     1.002249
  4 C s       :     3.138853  s :     3.138853
      pz      :     0.950146  p :     2.864723
      px      :     0.923733
      py      :     0.990843
  5 C s       :     3.138850  s :     3.138850
      pz      :     0.948888  p :     2.864785
      px      :     0.923697
      py      :     0.992200
  6 C s       :     3.150000  s :     3.150000
      pz      :     0.971420  p :     2.928389
      px      :     0.954131
      py      :     1.002838
  7 C s       :     3.149932  s :     3.149932
      pz      :     0.970298  p :     2.928538
      px      :     0.956630
      py      :     1.001610
  8 C s       :     3.139372  s :     3.139372
      pz      :     0.948731  p :     2.863976
      px      :     0.924014
      py      :     0.991231
  9 C s       :     3.149903  s :     3.149903
      pz      :     0.971572  p :     2.928669
      px      :     0.954040
      py      :     1.003057
 10 C s       :     3.149933  s :     3.149933
      pz      :     0.970230  p :     2.928374
      px      :     0.956659
      py      :     1.001484
 11 C s       :     3.150007  s :     3.150007
      pz      :     0.972171  p :     2.928358
      px      :     0.955854
      py      :     1.000333
 12 C s       :     3.149969  s :     3.149969
      pz      :     0.971252  p :     2.928616
      px      :     0.954973
      py      :     1.002390
 13 C s       :     3.150789  s :     3.150789
      pz      :     0.970799  p :     2.927060
      px      :     0.954288
      py      :     1.001973
 14 C s       :     3.147957  s :     3.147957
      pz      :     0.975392  p :     2.931048
      px      :     0.957932
      py      :     0.997724
 15 C s       :     3.148676  s :     3.148676
      pz      :     0.951634  p :     2.929551
      px      :     0.982071
      py      :     0.995846
 16 C s       :     3.148688  s :     3.148688
      pz      :     0.953305  p :     2.929523
      px      :     0.982132
      py      :     0.994086
 17 C s       :     3.147996  s :     3.147996
      pz      :     0.977094  p :     2.931044
      px      :     0.957303
      py      :     0.996646
 18 C s       :     3.150834  s :     3.150834
      pz      :     0.970539  p :     2.927012
      px      :     0.955170
      py      :     1.001303
 19 C s       :     3.139256  s :     3.139256
      pz      :     0.950299  p :     2.864305
      px      :     0.923313
      py      :     0.990693
 20 C s       :     3.150800  s :     3.150800
      pz      :     0.971503  p :     2.927035
      px      :     0.956039
      py      :     0.999493
 21 C s       :     3.148016  s :     3.148016
      pz      :     0.976307  p :     2.931059
      px      :     0.956111
      py      :     0.998641
 22 C s       :     3.148024  s :     3.148024
      pz      :     0.976289  p :     2.931048
      px      :     0.955439
      py      :     0.999320
 23 C s       :     3.150797  s :     3.150797
      pz      :     0.969532  p :     2.926959
      px      :     0.956836
      py      :     1.000591
 24 H s       :     0.920155  s :     0.920155
 25 H s       :     0.920241  s :     0.920241
 26 H s       :     0.920243  s :     0.920243
 27 H s       :     0.920192  s :     0.920192
 28 H s       :     0.920138  s :     0.920138
 29 H s       :     0.920287  s :     0.920287
 30 H s       :     0.920263  s :     0.920263
 31 H s       :     0.920138  s :     0.920138
 32 H s       :     0.920627  s :     0.920627
 33 H s       :     0.920572  s :     0.920572
 34 H s       :     0.920570  s :     0.920570
 35 H s       :     0.920635  s :     0.920635
 36 H s       :     0.920640  s :     0.920640
 37 H s       :     0.920553  s :     0.920553
 38 H s       :     0.920563  s :     0.920563
 39 H s       :     0.920675  s :     0.920675
 40 H s       :     0.920450  s :     0.920450
 41 H s       :     0.920453  s :     0.920453


                     *******************************
                     * LOEWDIN POPULATION ANALYSIS *
                     *******************************

----------------------
LOEWDIN ATOMIC CHARGES
----------------------
   0 C :    0.002727
   1 C :    0.003104
   2 C :   -0.045967
   3 C :   -0.045802
   4 C :    0.002755
   5 C :    0.002706
   6 C :   -0.045768
   7 C :   -0.045903
   8 C :    0.003046
   9 C :   -0.045950
  10 C :   -0.045744
  11 C :   -0.045783
  12 C :   -0.045961
  13 C :   -0.045234
  14 C :   -0.042987
  15 C :   -0.042148
  16 C :   -0.042135
  17 C :   -0.043013
  18 C :   -0.045234
  19 C :    0.002783
  20 C :   -0.045252
  21 C :   -0.043040
  22 C :   -0.043031
  23 C :   -0.045186
  24 H :    0.044084
  25 H :    0.044008
  26 H :    0.044005
  27 H :    0.044059
  28 H :    0.044083
  29 H :    0.043987
  30 H :    0.044004
  31 H :    0.044081
  32 H :    0.043646
  33 H :    0.043318
  34 H :    0.043319
  35 H :    0.043640
  36 H :    0.043657
  37 H :    0.043332
  38 H :    0.043323
  39 H :    0.043626
  40 H :    0.043423
  41 H :    0.043421

-------------------------------
LOEWDIN REDUCED ORBITAL CHARGES
-------------------------------
  0 C s       :     3.035677  s :     3.035677
      pz      :     0.997518  p :     2.961596
      px      :     0.969476
      py      :     0.994602
  1 C s       :     3.035748  s :     3.035748
      pz      :     0.997355  p :     2.961148
      px      :     0.970024
      py      :     0.993768
  2 C s       :     3.030787  s :     3.030787
      pz      :     1.005295  p :     3.015180
      px      :     1.004543
      py      :     1.005341
  3 C s       :     3.030818  s :     3.030818
      pz      :     1.004743  p :     3.014984
      px      :     1.004418
      py      :     1.005823
  4 C s       :     3.035235  s :     3.035235
      pz      :     0.997501  p :     2.962010
      px      :     0.969835
      py      :     0.994675
  5 C s       :     3.035233  s :     3.035233
      pz      :     0.997714  p :     2.962061
      px      :     0.969852
      py      :     0.994495
  6 C s       :     3.030845  s :     3.030845
      pz      :     1.005513  p :     3.014924
      px      :     1.004070
      py      :     1.005341
  7 C s       :     3.030815  s :     3.030815
      pz      :     1.005077  p :     3.015088
      px      :     1.004941
      py      :     1.005071
  8 C s       :     3.035754  s :     3.035754
      pz      :     0.997600  p :     2.961200
      px      :     0.970038
      py      :     0.993562
  9 C s       :     3.030739  s :     3.030739
      pz      :     1.005664  p :     3.015211
      px      :     1.003988
      py      :     1.005559
 10 C s       :     3.030822  s :     3.030822
      pz      :     1.005030  p :     3.014922
      px      :     1.004950
      py      :     1.004942
 11 C s       :     3.030881  s :     3.030881
      pz      :     1.005168  p :     3.014901
      px      :     1.004603
      py      :     1.005130
 12 C s       :     3.030800  s :     3.030800
      pz      :     1.004814  p :     3.015161
      px      :     1.004384
      py      :     1.005963
 13 C s       :     3.031685  s :     3.031685
      pz      :     1.005008  p :     3.013549
      px      :     1.003908
      py      :     1.004632
 14 C s       :     3.026902  s :     3.026902
      pz      :     1.009424  p :     3.016085
      px      :     1.005744
      py      :     1.000917
 15 C s       :     3.027602  s :     3.027602
      pz      :     1.003250  p :     3.014546
      px      :     1.011799
      py      :     0.999497
 16 C s       :     3.027611  s :     3.027611
      pz      :     1.003150  p :     3.014524
      px      :     1.011795
      py      :     0.999579
 17 C s       :     3.026932  s :     3.026932
      pz      :     1.009355  p :     3.016081
      px      :     1.005546
      py      :     1.001180
 18 C s       :     3.031727  s :     3.031727
      pz      :     1.004187  p :     3.013506
      px      :     1.004262
      py      :     1.005057
 19 C s       :     3.035695  s :     3.035695
      pz      :     0.997266  p :     2.961522
      px      :     0.969446
      py      :     0.994810
 20 C s       :     3.031721  s :     3.031721
      pz      :     1.004613  p :     3.013531
      px      :     1.004352
      py      :     1.004566
 21 C s       :     3.026926  s :     3.026926
      pz      :     1.009113  p :     3.016114
      px      :     1.005113
      py      :     1.001888
 22 C s       :     3.026936  s :     3.026936
      pz      :     1.009662  p :     3.016094
      px      :     1.004948
      py      :     1.001484
 23 C s       :     3.031731  s :     3.031731
      pz      :     1.004449  p :     3.013454
      px      :     1.004707
      py      :     1.004298
 24 H s       :     0.955916  s :     0.955916
 25 H s       :     0.955992  s :     0.955992
 26 H s       :     0.955995  s :     0.955995
 27 H s       :     0.955941  s :     0.955941
 28 H s       :     0.955917  s :     0.955917
 29 H s       :     0.956013  s :     0.956013
 30 H s       :     0.955996  s :     0.955996
 31 H s       :     0.955919  s :     0.955919
 32 H s       :     0.956354  s :     0.956354
 33 H s       :     0.956682  s :     0.956682
 34 H s       :     0.956681  s :     0.956681
 35 H s       :     0.956360  s :     0.956360
 36 H s       :     0.956343  s :     0.956343
 37 H s       :     0.956668  s :     0.956668
 38 H s       :     0.956677  s :     0.956677
 39 H s       :     0.956374  s :     0.956374
 40 H s       :     0.956577  s :     0.956577
 41 H s       :     0.956579  s :     0.956579


                      *****************************
                      * MAYER POPULATION ANALYSIS *
                      *****************************

  NA   - Mulliken gross atomic population
  ZA   - Total nuclear charge
  QA   - Mulliken gross atomic charge
  VA   - Mayer's total valence
  BVA  - Mayer's bonded valence
  FA   - Mayer's free valence

  ATOM       NA         ZA         QA         VA         BVA        FA
  0 C      6.0036     6.0000    -0.0036     3.9717     3.9717    -0.0000
  1 C      6.0033     6.0000    -0.0033     3.9717     3.9717    -0.0000
  2 C      6.0785     6.0000    -0.0785     3.9693     3.9693    -0.0000
  3 C      6.0784     6.0000    -0.0784     3.9693     3.9693    -0.0000
  4 C      6.0036     6.0000    -0.0036     3.9719     3.9719     0.0000
  5 C      6.0036     6.0000    -0.0036     3.9719     3.9719    -0.0000
  6 C      6.0784     6.0000    -0.0784     3.9693     3.9693     0.0000
  7 C      6.0785     6.0000    -0.0785     3.9693     3.9693    -0.0000
  8 C      6.0033     6.0000    -0.0033     3.9717     3.9717    -0.0000
  9 C      6.0786     6.0000    -0.0786     3.9694     3.9694    -0.0000
 10 C      6.0783     6.0000    -0.0783     3.9694     3.9694    -0.0000
 11 C      6.0784     6.0000    -0.0784     3.9693     3.9693     0.0000
 12 C      6.0786     6.0000    -0.0786     3.9693     3.9693    -0.0000
 13 C      6.0778     6.0000    -0.0778     3.9691     3.9691    -0.0000
 14 C      6.0790     6.0000    -0.0790     3.9707     3.9707    -0.0000
 15 C      6.0782     6.0000    -0.0782     3.9704     3.9704    -0.0000
 16 C      6.0782     6.0000    -0.0782     3.9704     3.9704    -0.0000
 17 C      6.0790     6.0000    -0.0790     3.9707     3.9707     0.0000
 18 C      6.0778     6.0000    -0.0778     3.9691     3.9691    -0.0000
 19 C      6.0036     6.0000    -0.0036     3.9717     3.9717     0.0000
 20 C      6.0778     6.0000    -0.0778     3.9691     3.9691     0.0000
 21 C      6.0791     6.0000    -0.0791     3.9707     3.9707    -0.0000
 22 C      6.0791     6.0000    -0.0791     3.9707     3.9707    -0.0000
 23 C      6.0778     6.0000    -0.0778     3.9691     3.9691     0.0000
 24 H      0.9202     1.0000     0.0798     0.9936     0.9936     0.0000
 25 H      0.9202     1.0000     0.0798     0.9936     0.9936    -0.0000
 26 H      0.9202     1.0000     0.0798     0.9936     0.9936    -0.0000
 27 H      0.9202     1.0000     0.0798     0.9936     0.9936     0.0000
 28 H      0.9201     1.0000     0.0799     0.9936     0.9936     0.0000
 29 H      0.9203     1.0000     0.0797     0.9936     0.9936     0.0000
 30 H      0.9203     1.0000     0.0797     0.9936     0.9936    -0.0000
 31 H      0.9201     1.0000     0.0799     0.9936     0.9936    -0.0000
 32 H      0.9206     1.0000     0.0794     0.9937     0.9937     0.0000
 33 H      0.9206     1.0000     0.0794     0.9937     0.9937    -0.0000
 34 H      0.9206     1.0000     0.0794     0.9937     0.9937    -0.0000
 35 H      0.9206     1.0000     0.0794     0.9937     0.9937     0.0000
 36 H      0.9206     1.0000     0.0794     0.9937     0.9937    -0.0000
 37 H      0.9206     1.0000     0.0794     0.9937     0.9937    -0.0000
 38 H      0.9206     1.0000     0.0794     0.9937     0.9937    -0.0000
 39 H      0.9207     1.0000     0.0793     0.9937     0.9937     0.0000
 40 H      0.9205     1.0000     0.0795     0.9937     0.9937    -0.0000
 41 H      0.9205     1.0000     0.0795     0.9937     0.9937    -0.0000

  Mayer bond orders larger than 0.100000
B(  0-C ,  1-C ) :   1.0334 B(  0-C , 13-C ) :   1.3827 B(  0-C , 15-C ) :   0.1092 
B(  0-C , 23-C ) :   1.3823 B(  1-C ,  2-C ) :   1.3756 B(  1-C ,  4-C ) :   0.1026 
B(  1-C , 12-C ) :   1.3752 B(  2-C ,  3-C ) :   1.4562 B(  2-C , 11-C ) :   0.1035 
B(  2-C , 24-H ) :   0.9600 B(  3-C ,  4-C ) :   1.3744 B(  3-C , 12-C ) :   0.1035 
B(  3-C , 25-H ) :   0.9601 B(  4-C ,  5-C ) :   1.0367 B(  4-C , 11-C ) :   1.3739 
B(  5-C ,  6-C ) :   1.3737 B(  5-C ,  8-C ) :   0.1026 B(  5-C , 10-C ) :   1.3746 
B(  6-C ,  7-C ) :   1.4569 B(  6-C ,  9-C ) :   0.1035 B(  6-C , 26-H ) :   0.9601 
B(  7-C ,  8-C ) :   1.3750 B(  7-C , 10-C ) :   0.1035 B(  7-C , 27-H ) :   0.9600 
B(  8-C ,  9-C ) :   1.3758 B(  8-C , 19-C ) :   1.0334 B(  9-C , 10-C ) :   1.4560 
B(  9-C , 28-H ) :   0.9600 B( 10-C , 29-H ) :   0.9600 B( 11-C , 12-C ) :   1.4567 
B( 11-C , 30-H ) :   0.9600 B( 12-C , 31-H ) :   0.9601 B( 13-C , 14-C ) :   1.4427 
B( 13-C , 22-C ) :   0.1102 B( 13-C , 32-H ) :   0.9604 B( 14-C , 15-C ) :   1.4239 
B( 14-C , 23-C ) :   0.1102 B( 14-C , 33-H ) :   0.9631 B( 15-C , 22-C ) :   1.4235 
B( 15-C , 40-H ) :   0.9635 B( 16-C , 17-C ) :   1.4239 B( 16-C , 19-C ) :   0.1092 
B( 16-C , 21-C ) :   1.4235 B( 16-C , 41-H ) :   0.9635 B( 17-C , 18-C ) :   1.4427 
B( 17-C , 20-C ) :   0.1101 B( 17-C , 34-H ) :   0.9632 B( 18-C , 19-C ) :   1.3826 
B( 18-C , 21-C ) :   0.1102 B( 18-C , 35-H ) :   0.9604 B( 19-C , 20-C ) :   1.3823 
B( 20-C , 21-C ) :   1.4431 B( 20-C , 36-H ) :   0.9604 B( 21-C , 37-H ) :   0.9631 
B( 22-C , 23-C ) :   1.4431 B( 22-C , 38-H ) :   0.9631 B( 23-C , 39-H ) :   0.9604 


-------
TIMINGS
-------

Total SCF time: 0 days 0 hours 0 min 4 sec 

Total time                  ....       4.271 sec
Sum of individual times     ....       3.601 sec  ( 84.3%)

Fock matrix formation       ....       2.443 sec  ( 57.2%)
  XC integration            ....       0.249 sec  ( 10.2% of F)
    Basis function eval.    ....       0.081 sec  ( 32.5% of XC)
    Density eval.           ....       0.020 sec  (  8.0% of XC)
    XC-Functional eval.     ....       0.013 sec  (  5.1% of XC)
    XC-Potential eval.      ....       0.016 sec  (  6.5% of XC)
Diagonalization             ....       0.003 sec  (  0.1%)
Density matrix formation    ....       0.003 sec  (  0.1%)
Population analysis         ....       0.010 sec  (  0.2%)
Initial guess               ....       0.019 sec  (  0.4%)
Orbital Transformation      ....       0.000 sec  (  0.0%)
Orbital Orthonormalization  ....       0.007 sec  (  0.2%)
DIIS solution               ....       0.001 sec  (  0.0%)
SOSCF solution              ....       0.021 sec  (  0.5%)
Grid generation             ....       1.102 sec  ( 25.8%)

-------------------------   --------------------
FINAL SINGLE POINT ENERGY      -913.505030306284
-------------------------   --------------------

                                *** OPTIMIZATION RUN DONE ***

                            ***************************************
                            *     ORCA property calculations      *
                            ***************************************

                                    ---------------------
                                    Active property flags
                                    ---------------------
   (+) Dipole Moment


------------------------------------------------------------------------------
                       ORCA ELECTRIC PROPERTIES CALCULATION
------------------------------------------------------------------------------

Dipole Moment Calculation                       ... on
Quadrupole Moment Calculation                   ... off
Polarizability Calculation                      ... off
GBWName                                         ... dummy2.gbw
Electron density file                           ... dummy2.scfp
The origin for moment calculation is the CENTER OF MASS  = ( 0.132367,  1.207511  0.054951)

-------------
DIPOLE MOMENT
-------------
                                X             Y             Z
Electronic contribution:     -0.00017       0.00023       0.00586
Nuclear contribution   :     -0.00002      -0.00029      -0.00593
                        -----------------------------------------
Total Dipole Moment    :     -0.00018      -0.00006      -0.00008
                        -----------------------------------------
Magnitude (a.u.)       :      0.00021
Magnitude (Debye)      :      0.00053



--------------------
Rotational spectrum 
--------------------
 
Rotational constants in cm-1:     0.046730     0.002157     0.002075 
Rotational constants in MHz :  1400.925907    64.658905    62.214340 

 Dipole components along the rotational axes: 
x,y,z [a.u.] :     0.000179    -0.000075     0.000075 
x,y,z [Debye]:     0.000455    -0.000192     0.000192 

 

Timings for individual modules:

Sum of individual times         ...      999.188 sec (=  16.653 min)
GTO integral calculation        ...      161.099 sec (=   2.685 min)  16.1 %
SCF iterations                  ...      546.274 sec (=   9.105 min)  54.7 %
SCF Gradient evaluation         ...      235.496 sec (=   3.925 min)  23.6 %
Geometry relaxation             ...       56.320 sec (=   0.939 min)   5.6 %
                             ****ORCA TERMINATED NORMALLY****
TOTAL RUN TIME: 0 days 0 hours 17 minutes 19 seconds 475 msec
