
                                 *****************
                                 * O   R   C   A *
                                 *****************

           --- An Ab Initio, DFT and Semiempirical electronic structure package ---

                  #######################################################
                  #                        -***-                        #
                  #          Department of theory and spectroscopy      #
                  #               Directorship: Frank Neese             #
                  #        Max Planck Institute fuer Kohlenforschung    #
                  #                Kaiser Wilhelm Platz 1               #
                  #                 D-45470 Muelheim/Ruhr               #
                  #                      Germany                        #
                  #                                                     #
                  #                  All rights reserved                #
                  #                        -***-                        #
                  #######################################################


                         Program Version 4.2.1 -  RELEASE  -


 With contributions from (in alphabetic order):
   Daniel Aravena         : Magnetic Suceptibility
   Michael Atanasov       : Ab Initio Ligand Field Theory (pilot matlab implementation)
   Alexander A. Auer      : GIAO ZORA, VPT2
   Ute Becker             : Parallelization
   Giovanni Bistoni       : ED, misc. LED, open-shell LED, HFLD
   Martin Brehm           : Molecular dynamics
   Dmytro Bykov           : SCF Hessian
   Vijay G. Chilkuri      : MRCI spin determinant printing, contributions to CSF-ICE
   Dipayan Datta          : RHF DLPNO-CCSD density
   Achintya Kumar Dutta   : EOM-CC, STEOM-CC
   Dmitry Ganyushin       : Spin-Orbit,Spin-Spin,Magnetic field MRCI
   Miquel Garcia          : C-PCM Hessian, Gaussian charge scheme
   Yang Guo               : DLPNO-NEVPT2, CIM, IAO-localization
   Andreas Hansen         : Spin unrestricted coupled pair/coupled cluster methods
   Benjamin Helmich-Paris : CASSCF linear response (MC-RPA)
   Lee Huntington         : MR-EOM, pCC
   Robert Izsak           : Overlap fitted RIJCOSX, COSX-SCS-MP3, EOM
   Christian Kollmar      : KDIIS, OOCD, Brueckner-CCSD(T), CCSD density
   Simone Kossmann        : Meta GGA functionals, TD-DFT gradient, OOMP2, MP2 Hessian
   Martin Krupicka        : AUTO-CI
   Lucas Lang             : DCDCAS
   Dagmar Lenk            : GEPOL surface, SMD
   Dimitrios Liakos       : Extrapolation schemes; Compound Job, initial MDCI parallelization
   Dimitrios Manganas     : Further ROCIS development; embedding schemes
   Dimitrios Pantazis     : SARC Basis sets
   Taras Petrenko         : DFT Hessian,TD-DFT gradient, ASA, ECA, R-Raman, ABS, FL, XAS/XES, NRVS
   Peter Pinski           : DLPNO-MP2, DLPNO-MP2 Gradient
   Christoph Reimann      : Effective Core Potentials
   Marius Retegan         : Local ZFS, SOC
   Christoph Riplinger    : Optimizer, TS searches, QM/MM, DLPNO-CCSD(T), (RO)-DLPNO pert. Triples
   Tobias Risthaus        : Range-separated hybrids, TD-DFT gradient, RPA, STAB
   Michael Roemelt        : Original ROCIS implementation
   Masaaki Saitow         : Open-shell DLPNO-CCSD energy and density
   Barbara Sandhoefer     : DKH picture change effects
   Avijit Sen             : IP-ROCIS
   Kantharuban Sivalingam : CASSCF convergence, NEVPT2, FIC-MRCI
   Bernardo de Souza      : ESD, SOC TD-DFT
   Georgi Stoychev        : AutoAux, RI-MP2 NMR
   Willem Van den Heuvel  : Paramagnetic NMR
   Boris Wezisla          : Elementary symmetry handling
   Frank Wennmohs         : Technical directorship


 We gratefully acknowledge several colleagues who have allowed us to
 interface, adapt or use parts of their codes:
   Stefan Grimme, W. Hujo, H. Kruse,             : VdW corrections, initial TS optimization,
                  C. Bannwarth                     DFT functionals, gCP, sTDA/sTD-DF
   Ed Valeev, F. Pavosevic, A. Kumar             : LibInt (2-el integral package), F12 methods
   Garnet Chan, S. Sharma, J. Yang, R. Olivares  : DMRG
   Ulf Ekstrom                                   : XCFun DFT Library
   Mihaly Kallay                                 : mrcc  (arbitrary order and MRCC methods)
   Andreas Klamt, Michael Diedenhofen            : otool_cosmo (COSMO solvation model)
   Jiri Pittner, Ondrej Demel                    : Mk-CCSD
   Frank Weinhold                                : gennbo (NPA and NBO analysis)
   Christopher J. Cramer and Donald G. Truhlar   : smd solvation model
   Lars Goerigk                                  : TD-DFT with DH, B97 family of functionals
   V. Asgeirsson, H. Jonsson                     : NEB implementation
   FAccTs GmbH                                   : IRC, NEB, NEB-TS, Multilevel, MM, QM/MM, CI optimization
   S Lehtola, MJT Oliveira, MAL Marques          : LibXC Library


 Your calculation uses the libint2 library for the computation of 2-el integrals
 For citations please refer to: http://libint.valeyev.net

 Your ORCA version has been built with support for libXC version: 4.2.3
 For citations please refer to: https://tddft.org/programs/libxc/

 This ORCA versions uses:
   CBLAS   interface :  Fast vector & matrix operations
   LAPACKE interface :  Fast linear algebra routines
   SCALAPACK package :  Parallel linear algebra routines


----- Orbital basis set information -----
Your calculation utilizes the basis: 6-31G*
   H-He, Li-Ne : W. J. Hehre, R. Ditchfield and J.A. Pople, J. Chem. Phys. 56, 2257 (1972).
                 Note: He and Ne are unpublished basis sets taken from the Gaussian program.
                 Note: Li and B from J. D. Dill and J. A. Pople, J. Chem. Phys. 62, 2921 (1975).
   Na - Ar     : M. M. Francl, W. J. Pietro, W. J. Hehre, J. S. Binkley, M. S. Gordon, 
                 D. J. DeFrees and J. A. Pople, J. Chem. Phys. 77, 3654 (1982).
   K - Zn      : V. A. Rassolov, J. A. Pople, M. A. Ratner, and T. L. Windus, J. Chem. Phys. 109, 1223 (1998).

================================================================================
                                        WARNINGS
                       Please study these warnings very carefully!
================================================================================


WARNING: Geometry Optimization
  ===> : Switching off AutoStart
         For restart on a previous wavefunction, please use MOREAD

INFO   : the flag for use of LIBINT has been found!

================================================================================
                                       INPUT FILE
================================================================================
NAME = dummy2.inp
|  1> ! B3LYP OPT 6-31G*
|  2> %pal
|  3> 	nprocs 28
|  4> end
|  5> %geom
|  6> 	coordsys redundant_old
|  7> end
|  8> * xyz 0 1
|  9>   C     -3.452440    0.712200    0.112300
| 10>   C     -2.854410    2.067000   -0.087770
| 11>   C     -2.180790    2.294020   -1.303530
| 12>   C     -0.978290    2.991150   -1.337050
| 13>   C     -0.394940    3.491070   -0.156240
| 14>   C      1.085330    3.355000   -0.004690
| 15>   C      1.935590    3.128250   -1.108620
| 16>   C      2.967690    2.195930   -1.036350
| 17>   C      3.201690    1.456150    0.144260
| 18>   C      2.625670    1.998840    1.311420
| 19>   C      1.586750    2.919730    1.238160
| 20>   C     -1.263000    3.595630    0.953140
| 21>   C     -2.468100    2.896110    0.987490
| 22>   C     -3.146900    0.051140    1.317720
| 23>   C     -2.852670   -1.307900    1.334290
| 24>   C     -2.850710   -2.064690    0.146350
| 25>   C      2.376020   -2.603670   -0.071370
| 26>   C      2.794420   -2.071370    1.166140
| 27>   C      3.369220   -0.807520    1.249940
| 28>   C      3.524920   -0.003220    0.100850
| 29>   C      3.484330   -0.703720   -1.123830
| 30>   C      2.936100   -1.979970   -1.207000
| 31>   C     -3.530490   -1.484270   -0.947070
| 32>   C     -3.824850   -0.121940   -0.964160
| 33>   H     -2.470040    1.740800   -2.191530
| 34>   H     -0.396430    2.946550   -2.251890
| 35>   H      1.699310    3.559720   -2.077720
| 36>   H      3.484470    1.937480   -1.956170
| 37>   H      2.836720    1.561420    2.281440
| 38>   H      1.036660    3.132860    2.149380
| 39>   H     -0.933730    4.101650    1.857050
| 40>   H     -3.032730    2.880270    1.916480
| 41>   H     -2.915890    0.629970    2.206500
| 42>   H     -2.408990   -1.717030    2.236330
| 43>   H      2.505840   -2.555680    2.093910
| 44>   H      3.522750   -0.388580    2.239500
| 45>   H      3.717610   -0.193820   -2.053560
| 46>   H      2.793000   -2.407790   -2.194860
| 47>   H     -3.697240   -2.061540   -1.853050
| 48>   H     -4.208860    0.314830   -1.882820
| 49>   H     -2.502425   -3.091737    0.123934
| 50>   H      1.826581   -3.536275   -0.139411
| 51> 
| 52> **                         ****END OF INPUT****
================================================================================

                       *****************************
                       * Geometry Optimization Run *
                       *****************************

Geometry optimization settings:
Update method            Update   .... BFGS
Choice of coordinates    CoordSys .... Old Redundant Internals
Initial Hessian          InHess   .... Almoef's Model

Convergence Tolerances:
Energy Change            TolE     ....  5.0000e-06 Eh
Max. Gradient            TolMAXG  ....  3.0000e-04 Eh/bohr
RMS Gradient             TolRMSG  ....  1.0000e-04 Eh/bohr
Max. Displacement        TolMAXD  ....  4.0000e-03 bohr
RMS Displacement         TolRMSD  ....  2.0000e-03 bohr
Strict Convergence                ....  False
------------------------------------------------------------------------------
                        ORCA OPTIMIZATION COORDINATE SETUP
------------------------------------------------------------------------------

The optimization will be done in redundant internal coordinates
Making redundant internal coordinates   ... (old redundants) done
Evaluating the initial hessian          ...  (Almloef) done
Evaluating the coordinates              ...  done
Calculating the B-matrix                .... done
Calculating the G-matrix                .... done
Diagonalizing the G-matrix              .... done
Small eigenvalue found = 2.712e-03
Small eigenvalue found = 2.996e-03
Small eigenvalue found = 7.586e-03
Small eigenvalue found = 1.346e-02
Small eigenvalue found = 1.726e-02
Small eigenvalue found = 2.344e-02
The first mode is                       ....  124
The number of degrees of freedom        ....  120

    -----------------------------------------------------------------
                    Redundant Internal Coordinates


    -----------------------------------------------------------------
         Definition                    Initial Value    Approx d2E/dq
    -----------------------------------------------------------------
      1. B(C   1,C   0)                  1.4944         0.425812   
      2. B(C   2,C   1)                  1.4083         0.584124   
      3. B(C   3,C   2)                  1.3904         0.623955   
      4. B(C   4,C   3)                  1.4087         0.583245   
      5. B(C   5,C   4)                  1.4942         0.426058   
      6. B(C   6,C   5)                  1.4117         0.576831   
      7. B(C   7,C   6)                  1.3927         0.618580   
      8. B(C   8,C   7)                  1.4128         0.574696   
      9. B(C   9,C   8)                  1.4102         0.580179   
     10. B(C  10,C   5)                  1.4091         0.582463   
     11. B(C  10,C   9)                  1.3902         0.624252   
     12. B(C  11,C   4)                  1.4125         0.575208   
     13. B(C  12,C   1)                  1.4117         0.576963   
     14. B(C  12,C  11)                  1.3938         0.616057   
     15. B(C  13,C   0)                  1.4083         0.584110   
     16. B(C  14,C  13)                  1.3906         0.623365   
     17. B(C  15,C  14)                  1.4085         0.583696   
     18. B(C  17,C  16)                  1.4106         0.579228   
     19. B(C  18,C  17)                  1.3909         0.622626   
     20. B(C  19,C   8)                  1.4954         0.424260   
     21. B(C  19,C  18)                  1.4112         0.577936   
     22. B(C  20,C  19)                  1.4114         0.577454   
     23. B(C  21,C  16)                  1.4115         0.577336   
     24. B(C  21,C  20)                  1.3915         0.621351   
     25. B(C  22,C  15)                  1.4123         0.575679   
     26. B(C  23,C   0)                  1.4118         0.576661   
     27. B(C  23,C  22)                  1.3939         0.615969   
     28. B(H  24,C   2)                  1.0855         0.366132   
     29. B(H  25,C   3)                  1.0851         0.366616   
     30. B(H  26,C   6)                  1.0868         0.364349   
     31. B(H  27,C   7)                  1.0862         0.365103   
     32. B(H  28,C   9)                  1.0848         0.367029   
     33. B(H  29,C  10)                  1.0855         0.366081   
     34. B(H  30,C  11)                  1.0870         0.364116   
     35. B(H  31,C  12)                  1.0872         0.363776   
     36. B(H  32,C  13)                  1.0855         0.366084   
     37. B(H  33,C  14)                  1.0853         0.366347   
     38. B(H  34,C  17)                  1.0856         0.365928   
     39. B(H  35,C  18)                  1.0855         0.366102   
     40. B(H  36,C  20)                  1.0857         0.365790   
     41. B(H  37,C  21)                  1.0860         0.365444   
     42. B(H  38,C  22)                  1.0871         0.363920   
     43. B(H  39,C  23)                  1.0873         0.363722   
     44. B(H  40,C  15)                  1.0847         0.367145   
     45. B(H  41,C  16)                  1.0846         0.367372   
     46. A(C   2,C   1,C   0)          116.9450         0.401688   
     47. A(C   3,C   2,C   1)          121.0189         0.429932   
     48. A(C   4,C   3,C   2)          121.0555         0.429816   
     49. A(C   5,C   4,C   3)          117.5763         0.401622   
     50. A(C   6,C   5,C   4)          122.1388         0.400840   
     51. A(C   7,C   6,C   5)          120.8820         0.428299   
     52. A(C   8,C   7,C   6)          121.1078         0.428014   
     53. A(C   9,C   8,C   7)          114.9922         0.423132   
     54. A(C  10,C   5,C   4)          118.0415         0.401527   
     55. A(C  10,C   5,C   6)          115.1996         0.423710   
     56. A(C  10,C   9,C   8)          121.1015         0.429446   
     57. A(C   9,C  10,C   5)          121.1322         0.429749   
     58. A(C  11,C   4,C   3)          115.4746         0.423598   
     59. A(C  11,C   4,C   5)          122.4048         0.400642   
     60. A(C  12,C   1,C   0)          122.6838         0.400816   
     61. A(C  12,C   1,C   2)          115.5929         0.423943   
     62. A(C  12,C  11,C   4)          120.9001         0.427769   
     63. A(C  11,C  12,C   1)          120.8361         0.428003   
     64. A(C  13,C   0,C   1)          116.9571         0.401686   
     65. A(C  14,C  13,C   0)          120.9863         0.429858   
     66. A(C  15,C  14,C  13)          121.0199         0.429803   
     67. A(C  18,C  17,C  16)          121.2181         0.429119   
     68. A(C  19,C   8,C   7)          121.5056         0.400281   
     69. A(C  19,C   8,C   9)          119.2025         0.400950   
     70. A(C  19,C  18,C  17)          120.9568         0.428947   
     71. A(C  18,C  19,C   8)          120.5790         0.400677   
     72. A(C  20,C  19,C   8)          120.2201         0.400618   
     73. A(C  20,C  19,C  18)          114.8647         0.423201   
     74. A(C  21,C  16,C  17)          114.9222         0.423355   
     75. A(C  21,C  20,C  19)          121.2238         0.428725   
     76. A(C  20,C  21,C  16)          120.8981         0.428710   
     77. A(C  22,C  15,C  14)          115.5619         0.423719   
     78. A(C  23,C   0,C   1)          122.6240         0.400779   
     79. A(C  23,C   0,C  13)          115.6267         0.423902   
     80. A(C  23,C  22,C  15)          120.8518         0.427821   
     81. A(C  22,C  23,C   0)          120.8239         0.427952   
     82. A(H  24,C   2,C   1)          119.7755         0.350353   
     83. A(H  24,C   2,C   3)          117.7934         0.354285   
     84. A(H  25,C   3,C   2)          117.6120         0.354364   
     85. A(H  25,C   3,C   4)          119.9480         0.350342   
     86. A(H  26,C   6,C   5)          120.1699         0.349323   
     87. A(H  26,C   6,C   7)          118.2390         0.353473   
     88. A(H  27,C   7,C   6)          117.8979         0.353597   
     89. A(H  27,C   7,C   8)          120.2819         0.349227   
     90. A(H  28,C   9,C   8)          120.3610         0.350097   
     91. A(H  28,C   9,C  10)          117.3613         0.354460   
     92. A(H  29,C  10,C   5)          119.9617         0.350177   
     93. A(H  29,C  10,C   9)          117.6789         0.354305   
     94. A(H  30,C  11,C   4)          120.0939         0.349120   
     95. A(H  30,C  11,C  12)          118.3622         0.353190   
     96. A(H  31,C  12,C   1)          120.0102         0.349244   
     97. A(H  31,C  12,C  11)          118.5141         0.353135   
     98. A(H  32,C  13,C   0)          119.7801         0.350344   
     99. A(H  32,C  13,C  14)          117.7968         0.354220   
    100. A(H  33,C  14,C  13)          117.6975         0.354263   
    101. A(H  33,C  14,C  15)          119.8584         0.350345   
    102. A(H  34,C  17,C  16)          120.1679         0.349823   
    103. A(H  34,C  17,C  18)          117.6266         0.354123   
    104. A(H  35,C  18,C  17)          117.6485         0.354152   
    105. A(H  35,C  18,C  19)          120.4456         0.349719   
    106. A(H  36,C  20,C  19)          120.2481         0.349620   
    107. A(H  36,C  20,C  21)          117.6589         0.353977   
    108. A(H  37,C  21,C  16)          120.3643         0.349552   
    109. A(H  37,C  21,C  20)          117.8785         0.353921   
    110. A(H  38,C  22,C  15)          120.0536         0.349136   
    111. A(H  38,C  22,C  23)          118.4491         0.353150   
    112. A(H  39,C  23,C   0)          120.0027         0.349205   
    113. A(H  39,C  23,C  22)          118.5265         0.353117   
    114. A(H  40,C  15,C  14)          121.7760         0.350473   
    115. A(H  40,C  15,C  22)          121.8484         0.349656   
    116. A(H  41,C  16,C  17)          121.9909         0.350056   
    117. A(H  41,C  16,C  21)          122.0395         0.349862   
    118. D(C   2,C   1,C   0,C  13)    129.4954         0.012396   
    119. D(C  12,C   1,C   0,C  13)    -24.9093         0.012396   
    120. D(C   2,C   1,C   0,C  23)    -24.8840         0.012396   
    121. D(C  12,C   1,C   0,C  23)   -179.2887         0.012396   
    122. D(C   3,C   2,C   1,C   0)   -138.2998         0.023457   
    123. D(C   3,C   2,C   1,C  12)     17.9241         0.023457   
    124. D(H  24,C   2,C   1,C   0)     27.8398         0.023457   
    125. D(H  24,C   2,C   1,C  12)   -175.9364         0.023457   
    126. D(C   4,C   3,C   2,C   1)      0.0725         0.026961   
    127. D(C   4,C   3,C   2,H  24)   -166.3331         0.026961   
    128. D(H  25,C   3,C   2,C   1)    166.6320         0.026961   
    129. D(H  25,C   3,C   2,H  24)      0.2264         0.026961   
    130. D(C   5,C   4,C   3,C   2)    138.6340         0.023383   
    131. D(C  11,C   4,C   3,C   2)    -18.0755         0.023383   
    132. D(C   5,C   4,C   3,H  25)    -27.6151         0.023383   
    133. D(C  11,C   4,C   3,H  25)    175.6753         0.023383   
    134. D(C   6,C   5,C   4,C   3)     19.0852         0.012410   
    135. D(C  10,C   5,C   4,C   3)   -135.6481         0.012410   
    136. D(C   6,C   5,C   4,C  11)    174.0746         0.012410   
    137. D(C  10,C   5,C   4,C  11)     19.3413         0.012410   
    138. D(C   7,C   6,C   5,C   4)   -136.5216         0.022849   
    139. D(C   7,C   6,C   5,C  10)     18.8741         0.022849   
    140. D(H  26,C   6,C   5,C   4)     33.6601         0.022849   
    141. D(H  26,C   6,C   5,C  10)   -170.9442         0.022849   
    142. D(C   8,C   7,C   6,C   5)     -0.4470         0.026470   
    143. D(C   8,C   7,C   6,H  26)   -170.8137         0.026470   
    144. D(H  27,C   7,C   6,C   5)    169.9067         0.026470   
    145. D(H  27,C   7,C   6,H  26)     -0.4600         0.026470   
    146. D(C   9,C   8,C   7,C   6)    -18.5611         0.022672   
    147. D(C  19,C   8,C   7,C   6)    137.9427         0.022672   
    148. D(C   9,C   8,C   7,H  27)    171.3134         0.022672   
    149. D(C  19,C   8,C   7,H  27)    -32.1828         0.022672   
    150. D(C  10,C   9,C   8,C   7)     19.1985         0.023127   
    151. D(C  10,C   9,C   8,C  19)   -137.8836         0.023127   
    152. D(H  28,C   9,C   8,C   7)   -173.5222         0.023127   
    153. D(H  28,C   9,C   8,C  19)     29.3957         0.023127   
    154. D(C   9,C  10,C   5,C   4)    138.1696         0.023318   
    155. D(C   9,C  10,C   5,C   6)    -18.2873         0.023318   
    156. D(H  29,C  10,C   5,C   4)    -28.8813         0.023318   
    157. D(H  29,C  10,C   5,C   6)    174.6618         0.023318   
    158. D(C   5,C  10,C   9,C   8)     -0.8138         0.026988   
    159. D(C   5,C  10,C   9,H  28)   -168.4609         0.026988   
    160. D(H  29,C  10,C   9,C   8)    166.5226         0.026988   
    161. D(H  29,C  10,C   9,H  28)     -1.1244         0.026988   
    162. D(C  12,C  11,C   4,C   3)     18.0909         0.022714   
    163. D(C  12,C  11,C   4,C   5)   -137.3826         0.022714   
    164. D(H  30,C  11,C   4,C   3)   -171.2571         0.022714   
    165. D(H  30,C  11,C   4,C   5)     33.2695         0.022714   
    166. D(C  11,C  12,C   1,C   0)    136.8791         0.022860   
    167. D(C  11,C  12,C   1,C   2)    -17.8430         0.022860   
    168. D(H  31,C  12,C   1,C   0)    -33.8181         0.022860   
    169. D(H  31,C  12,C   1,C   2)    171.4598         0.022860   
    170. D(C   1,C  12,C  11,C   4)     -0.1641         0.026242   
    171. D(C   1,C  12,C  11,H  30)   -170.9743         0.026242   
    172. D(H  31,C  12,C  11,C   4)    170.6694         0.026242   
    173. D(H  31,C  12,C  11,H  30)     -0.1408         0.026242   
    174. D(C  14,C  13,C   0,C   1)   -138.1884         0.023456   
    175. D(C  14,C  13,C   0,C  23)     17.9880         0.023456   
    176. D(H  32,C  13,C   0,C   1)     27.8338         0.023456   
    177. D(H  32,C  13,C   0,C  23)   -175.9898         0.023456   
    178. D(C  15,C  14,C  13,C   0)      0.0235         0.026907   
    179. D(C  15,C  14,C  13,H  32)   -166.2672         0.026907   
    180. D(H  33,C  14,C  13,C   0)    166.3835         0.026907   
    181. D(H  33,C  14,C  13,H  32)      0.0927         0.026907   
    182. D(C  22,C  15,C  14,C  13)    -18.0472         0.023421   
    183. D(C  22,C  15,C  14,H  33)    175.8841         0.023421   
    184. D(H  40,C  15,C  14,C  13)    172.1066         0.023421   
    185. D(H  40,C  15,C  14,H  33)      6.0379         0.023421   
    186. D(C  18,C  17,C  16,C  21)     18.5202         0.023048   
    187. D(H  34,C  17,C  16,C  21)   -173.1171         0.023048   
    188. D(C  18,C  17,C  16,H  41)   -172.9670         0.023048   
    189. D(H  34,C  17,C  16,H  41)     -4.6044         0.023048   
    190. D(C  19,C  18,C  17,C  16)      1.4473         0.026839   
    191. D(C  19,C  18,C  17,H  34)   -167.2006         0.026839   
    192. D(H  35,C  18,C  17,C  16)    170.3473         0.026839   
    193. D(H  35,C  18,C  17,H  34)      1.6993         0.026839   
    194. D(C  18,C  19,C   8,C   7)   -161.1788         0.012309   
    195. D(C  18,C  19,C   8,C   9)     -5.6334         0.012309   
    196. D(C  20,C  19,C   8,C   7)     -5.7554         0.012309   
    197. D(C  20,C  19,C   8,C   9)    149.7899         0.012309   
    198. D(C   8,C  19,C  18,C  17)    136.7207         0.022940   
    199. D(C  20,C  19,C  18,C  17)    -19.9444         0.022940   
    200. D(C   8,C  19,C  18,H  35)    -31.8701         0.022940   
    201. D(C  20,C  19,C  18,H  35)    171.4648         0.022940   
    202. D(C  21,C  20,C  19,C   8)   -138.1880         0.022900   
    203. D(C  21,C  20,C  19,C  18)     18.5677         0.022900   
    204. D(H  36,C  20,C  19,C   8)     30.8892         0.022900   
    205. D(H  36,C  20,C  19,C  18)   -172.3550         0.022900   
    206. D(C  20,C  21,C  16,C  17)    -19.8852         0.022890   
    207. D(H  37,C  21,C  16,C  17)    170.9505         0.022890   
    208. D(C  20,C  21,C  16,H  41)    171.6082         0.022890   
    209. D(H  37,C  21,C  16,H  41)      2.4439         0.022890   
    210. D(C  16,C  21,C  20,C  19)      1.3755         0.026722   
    211. D(C  16,C  21,C  20,H  36)   -167.9748         0.026722   
    212. D(H  37,C  21,C  20,C  19)    170.8016         0.026722   
    213. D(H  37,C  21,C  20,H  36)      1.4514         0.026722   
    214. D(C  23,C  22,C  15,C  14)     18.0477         0.022753   
    215. D(H  38,C  22,C  15,C  14)   -171.3037         0.022753   
    216. D(C  23,C  22,C  15,H  40)   -172.1141         0.022753   
    217. D(H  38,C  22,C  15,H  40)     -1.4655         0.022753   
    218. D(C  22,C  23,C   0,C   1)    136.7691         0.022835   
    219. D(C  22,C  23,C   0,C  13)    -17.9232         0.022835   
    220. D(H  39,C  23,C   0,C   1)    -33.8764         0.022835   
    221. D(H  39,C  23,C   0,C  13)    171.4313         0.022835   
    222. D(C   0,C  23,C  22,C  15)     -0.0879         0.026234   
    223. D(C   0,C  23,C  22,H  38)   -170.8834         0.026234   
    224. D(H  39,C  23,C  22,C  15)    170.6928         0.026234   
    225. D(H  39,C  23,C  22,H  38)     -0.1026         0.026234   
    226. I(C   0,C  12,C   2,C   1)    -21.0632         0.035599   
    227. I(C   1,C  23,C  13,C   0)    -21.1023         0.035564   
    228. I(C   1,H  24,C   3,C   2)     11.6209         0.052130   
    229. I(C   2,H  25,C   4,C   3)     11.7494         0.057347   
    230. I(C   3,C  11,C   5,C   4)    -22.0092         0.054901   
    231. I(C   4,C  10,C   6,C   5)    -20.6433         0.036000   
    232. I(C   5,H  26,C   7,C   6)      8.2572         0.053223   
    233. I(C   6,H  27,C   8,C   7)      8.4432         0.058891   
    234. I(C   7,C  19,C   9,C   8)     20.6678         0.055629   
    235. I(C   8,H  28,C  10,C   9)     10.5551         0.052335   
    236. I(C   4,H  30,C  12,C  11)      7.8765         0.053193   
    237. I(C   0,H  32,C  14,C  13)     11.7226         0.052056   
    238. I(C  13,H  33,C  15,C  14)     11.9072         0.057141   
    239. I(C  14,H  40,C  22,C  15)     -9.1582         0.053662   
    240. I(C  16,H  34,C  18,C  17)      9.6910         0.052748   
    241. I(C  17,H  41,C  21,C  16)     10.4106         0.052302   
    242. I(C  17,H  35,C  19,C  18)      9.7667         0.058624   
    243. I(C  19,H  36,C  21,C  20)      9.0929         0.052857   
    244. I(C  15,H  38,C  23,C  22)      7.8931         0.053249   
    -----------------------------------------------------------------

Number of atoms                         .... 42
Number of degrees of freedom            .... 244

         *************************************************************
         *                GEOMETRY OPTIMIZATION CYCLE   1            *
         *************************************************************
---------------------------------
CARTESIAN COORDINATES (ANGSTROEM)
---------------------------------
  C     -3.452440    0.712200    0.112300
  C     -2.854410    2.067000   -0.087770
  C     -2.180790    2.294020   -1.303530
  C     -0.978290    2.991150   -1.337050
  C     -0.394940    3.491070   -0.156240
  C      1.085330    3.355000   -0.004690
  C      1.935590    3.128250   -1.108620
  C      2.967690    2.195930   -1.036350
  C      3.201690    1.456150    0.144260
  C      2.625670    1.998840    1.311420
  C      1.586750    2.919730    1.238160
  C     -1.263000    3.595630    0.953140
  C     -2.468100    2.896110    0.987490
  C     -3.146900    0.051140    1.317720
  C     -2.852670   -1.307900    1.334290
  C     -2.850710   -2.064690    0.146350
  C      2.376020   -2.603670   -0.071370
  C      2.794420   -2.071370    1.166140
  C      3.369220   -0.807520    1.249940
  C      3.524920   -0.003220    0.100850
  C      3.484330   -0.703720   -1.123830
  C      2.936100   -1.979970   -1.207000
  C     -3.530490   -1.484270   -0.947070
  C     -3.824850   -0.121940   -0.964160
  H     -2.470040    1.740800   -2.191530
  H     -0.396430    2.946550   -2.251890
  H      1.699310    3.559720   -2.077720
  H      3.484470    1.937480   -1.956170
  H      2.836720    1.561420    2.281440
  H      1.036660    3.132860    2.149380
  H     -0.933730    4.101650    1.857050
  H     -3.032730    2.880270    1.916480
  H     -2.915890    0.629970    2.206500
  H     -2.408990   -1.717030    2.236330
  H      2.505840   -2.555680    2.093910
  H      3.522750   -0.388580    2.239500
  H      3.717610   -0.193820   -2.053560
  H      2.793000   -2.407790   -2.194860
  H     -3.697240   -2.061540   -1.853050
  H     -4.208860    0.314830   -1.882820
  H     -2.502425   -3.091737    0.123934
  H      1.826581   -3.536275   -0.139411

----------------------------
CARTESIAN COORDINATES (A.U.)
----------------------------
  NO LB      ZA    FRAG     MASS         X           Y           Z
   0 C     6.0000    0    12.011   -6.524166    1.345863    0.212216
   1 C     6.0000    0    12.011   -5.394053    3.906064   -0.165861
   2 C     6.0000    0    12.011   -4.121096    4.335070   -2.463315
   3 C     6.0000    0    12.011   -1.848700    5.652454   -2.526658
   4 C     6.0000    0    12.011   -0.746328    6.597166   -0.295251
   5 C     6.0000    0    12.011    2.050976    6.340031   -0.008863
   6 C     6.0000    0    12.011    3.657735    5.911536   -2.094988
   7 C     6.0000    0    12.011    5.608121    4.149706   -1.958418
   8 C     6.0000    0    12.011    6.050317    2.751725    0.272612
   9 C     6.0000    0    12.011    4.961797    3.777260    2.478225
  10 C     6.0000    0    12.011    2.998523    5.517490    2.339783
  11 C     6.0000    0    12.011   -2.386724    6.794756    1.801174
  12 C     6.0000    0    12.011   -4.664033    5.472855    1.866086
  13 C     6.0000    0    12.011   -5.946779    0.096641    2.490130
  14 C     6.0000    0    12.011   -5.390765   -2.471573    2.521443
  15 C     6.0000    0    12.011   -5.387061   -3.901699    0.276561
  16 C     6.0000    0    12.011    4.490027   -4.920223   -0.134870
  17 C     6.0000    0    12.011    5.280689   -3.914322    2.203685
  18 C     6.0000    0    12.011    6.366903   -1.525992    2.362044
  19 C     6.0000    0    12.011    6.661133   -0.006085    0.190579
  20 C     6.0000    0    12.011    6.584429   -1.329838   -2.123731
  21 C     6.0000    0    12.011    5.548425   -3.741601   -2.280899
  22 C     6.0000    0    12.011   -6.671659   -2.804864   -1.789703
  23 C     6.0000    0    12.011   -7.227919   -0.230433   -1.821998
  24 H     1.0000    0     1.008   -4.667699    3.289635   -4.141392
  25 H     1.0000    0     1.008   -0.749144    5.568173   -4.255455
  26 H     1.0000    0     1.008    3.211231    6.726896   -3.926322
  27 H     1.0000    0     1.008    6.584694    3.661307   -3.696626
  28 H     1.0000    0     1.008    5.360624    2.950656    4.311297
  29 H     1.0000    0     1.008    1.959003    5.920247    4.061740
  30 H     1.0000    0     1.008   -1.764494    7.750995    3.509316
  31 H     1.0000    0     1.008   -5.731029    5.442921    3.621622
  32 H     1.0000    0     1.008   -5.510234    1.190471    4.169681
  33 H     1.0000    0     1.008   -4.552331   -3.244716    4.226051
  34 H     1.0000    0     1.008    4.735351   -4.829535    3.956916
  35 H     1.0000    0     1.008    6.657033   -0.734310    4.232042
  36 H     1.0000    0     1.008    7.025265   -0.366267   -3.880666
  37 H     1.0000    0     1.008    5.278005   -4.550064   -4.147684
  38 H     1.0000    0     1.008   -6.986771   -3.895746   -3.501757
  39 H     1.0000    0     1.008   -7.953593    0.594942   -3.558014
  40 H     1.0000    0     1.008   -4.728898   -5.842536    0.234201
  41 H     1.0000    0     1.008    3.451738   -6.682591   -0.263449

--------------------------------
INTERNAL COORDINATES (ANGSTROEM)
--------------------------------
 C      0   0   0     0.000000000000     0.00000000     0.00000000
 C      1   0   0     1.494373087887     0.00000000     0.00000000
 C      2   1   0     1.408323244997   116.94496459     0.00000000
 C      3   2   1     1.390366885861   121.01891143   221.70024825
 C      4   3   2     1.408733290939   121.05545133     0.07249460
 C      5   4   3     1.494216088891   117.57626787   138.63400384
 C      6   5   4     1.411743275174   122.13877833    19.08522926
 C      7   6   5     1.392721775984   120.88195950   223.47838203
 C      8   7   6     1.412752781098   121.10780469   359.55302890
 C      9   8   7     1.410168054559   114.99215638   341.43887717
 C     10   9   8     1.390237456732   121.10146959    19.19853473
 C      5   4   3     1.412510156282   115.47458631   341.92445393
 C     12   5   4     1.393834338399   120.90006211    18.09087082
 C      1   2   3     1.408329645928   116.95709806   129.49536763
 C     14   1   2     1.390624168998   120.98634117   221.81155938
 C     15  14   1     1.408522768471   121.01986464     0.02353366
 C      9   8   7     4.148537775916   115.85174207   111.27972394
 C     17   9   8     1.410614352011    61.71124392   183.07449213
 C     18  17   9     1.390947268052   121.21814005   345.45925276
 C     19  18  17     1.411222451671   120.95677612     1.44731997
 C     20  19  18     1.411449219951   114.86472197   340.05557580
 C     21  20  19     1.391505459673   121.22377482    18.56770682
 C     16  15  14     1.412287336628   115.56190921   341.95278085
 C     23  16  15     1.393873346685   120.85180166    18.04769644
 H      3   2   1     1.085477743162   119.77548923    27.83977084
 H      4   3   2     1.085118631856   117.61197089   166.63199232
 H      7   6   5     1.086806978861   120.16991484    33.66006576
 H      8   7   6     1.086244357085   117.89786599   169.90672567
 H     10   9   8     1.084812038696   120.36102012   186.47784034
 H     11  10   9     1.085516141474   117.67890333   166.52263520
 H     12   5   4     1.086981260832   120.09385070   188.74292359
 H     13  12   5     1.087235191943   118.51411844   170.66941343
 H     14   1   2     1.085513554683   119.78014562    27.83375051
 H     15  14   1     1.085318138105   117.69754836   166.38345461
 H     18  17   9     1.085629663099   120.16785925   153.82192392
 H     19  18  17     1.085500427499   117.64852262   170.34729424
 H     21  20  19     1.085732674879   120.24810545   187.64497003
 H     22  21  20     1.085990304745   117.87854325   170.80157455
 H     23  16  15     1.087127396306   120.05356758   188.69630624
 H     24  23  16     1.087275452036   118.52651487   170.69283044
 H     16  15  14     1.084725983136   121.77595835   172.10656910
 H     17   9   8     1.084557457412   161.01320951   289.63372055

---------------------------
INTERNAL COORDINATES (A.U.)
---------------------------
 C      0   0   0     0.000000000000     0.00000000     0.00000000
 C      1   0   0     2.823955878008     0.00000000     0.00000000
 C      2   1   0     2.661345241080   116.94496459     0.00000000
 C      3   2   1     2.627412639951   121.01891143   221.70024825
 C      4   3   2     2.662120115612   121.05545133     0.07249460
 C      5   4   3     2.823659192902   117.57626787   138.63400384
 C      6   5   4     2.667808161485   122.13877833    19.08522926
 C      7   6   5     2.631862737358   120.88195950   223.47838203
 C      8   7   6     2.669715851211   121.10780469   359.55302890
 C      9   8   7     2.664831425922   114.99215638   341.43887717
 C     10   9   8     2.627168054342   121.10146959    19.19853473
 C      5   4   3     2.669257356755   115.47458631   341.92445393
 C     12   5   4     2.633965175629   120.90006211    18.09087082
 C      1   2   3     2.661357337086   116.95709806   129.49536763
 C     14   1   2     2.627898834617   120.98634117   221.81155938
 C     15  14   1     2.661722285802   121.01986464     0.02353366
 C      9   8   7     7.839600252708   115.85174207   111.27972394
 C     17   9   8     2.665674805880    61.71124392   183.07449213
 C     18  17   9     2.628509403343   121.21814005   345.45925276
 C     19  18  17     2.666823947699   120.95677612     1.44731997
 C     20  19  18     2.667252477644   114.86472197   340.05557580
 C     21  20  19     2.629564232638   121.22377482    18.56770682
 C     16  15  14     2.668836288632   115.56190921   341.95278085
 C     23  16  15     2.634038890608   120.85180166    18.04769644
 H      3   2   1     2.051255659043   119.77548923    27.83977084
 H      4   3   2     2.050577037022   117.61197089   166.63199232
 H      7   6   5     2.053767550481   120.16991484    33.66006576
 H      8   7   6     2.052704349409   117.89786599   169.90672567
 H     10   9   8     2.049997659916   120.36102012   186.47784034
 H     11  10   9     2.051328221336   117.67890333   166.52263520
 H     12   5   4     2.054096895677   120.09385070   188.74292359
 H     13  12   5     2.054576755934   118.51411844   170.66941343
 H     14   1   2     2.051323333010   119.78014562    27.83375051
 H     15  14   1     2.050954049196   117.69754836   166.38345461
 H     18  17   9     2.051542746118   120.16785925   153.82192392
 H     19  18  17     2.051298526227   117.64852262   170.34729424
 H     21  20  19     2.051737410171   120.24810545   187.64497003
 H     22  21  20     2.052224260062   117.87854325   170.80157455
 H     23  16  15     2.054373051702   120.05356758   188.69630624
 H     24  23  16     2.054652836483   118.52651487   170.69283044
 H     16  15  14     2.049835038475   121.77595835   172.10656910
 H     17   9   8     2.049516571010   161.01320951   289.63372055

---------------------
BASIS SET INFORMATION
---------------------
There are 2 groups of distinct atoms

 Group   1 Type C   : 10s4p1d contracted to 3s2p1d pattern {631/31/1}
 Group   2 Type H   : 4s contracted to 2s pattern {31}

Atom   0C    basis set group =>   1
Atom   1C    basis set group =>   1
Atom   2C    basis set group =>   1
Atom   3C    basis set group =>   1
Atom   4C    basis set group =>   1
Atom   5C    basis set group =>   1
Atom   6C    basis set group =>   1
Atom   7C    basis set group =>   1
Atom   8C    basis set group =>   1
Atom   9C    basis set group =>   1
Atom  10C    basis set group =>   1
Atom  11C    basis set group =>   1
Atom  12C    basis set group =>   1
Atom  13C    basis set group =>   1
Atom  14C    basis set group =>   1
Atom  15C    basis set group =>   1
Atom  16C    basis set group =>   1
Atom  17C    basis set group =>   1
Atom  18C    basis set group =>   1
Atom  19C    basis set group =>   1
Atom  20C    basis set group =>   1
Atom  21C    basis set group =>   1
Atom  22C    basis set group =>   1
Atom  23C    basis set group =>   1
Atom  24H    basis set group =>   2
Atom  25H    basis set group =>   2
Atom  26H    basis set group =>   2
Atom  27H    basis set group =>   2
Atom  28H    basis set group =>   2
Atom  29H    basis set group =>   2
Atom  30H    basis set group =>   2
Atom  31H    basis set group =>   2
Atom  32H    basis set group =>   2
Atom  33H    basis set group =>   2
Atom  34H    basis set group =>   2
Atom  35H    basis set group =>   2
Atom  36H    basis set group =>   2
Atom  37H    basis set group =>   2
Atom  38H    basis set group =>   2
Atom  39H    basis set group =>   2
Atom  40H    basis set group =>   2
Atom  41H    basis set group =>   2


           ************************************************************
           *        Program running with 28 parallel MPI-processes    *
           *              working on a common directory               *
           ************************************************************
------------------------------------------------------------------------------
                           ORCA GTO INTEGRAL CALCULATION
------------------------------------------------------------------------------

                         BASIS SET STATISTICS AND STARTUP INFO

 # of primitive gaussian shells          ...  432
 # of primitive gaussian functions       ...  720
 # of contracted shells                  ...  180
 # of contracted basis functions         ...  372
 Highest angular momentum                ...    2
 Maximum contraction depth               ...    6
 Integral package used                   ... LIBINT
 Integral threshhold            Thresh   ...  2.500e-11
 Primitive cut-off              TCut     ...  2.500e-12


------------------------------ INTEGRAL EVALUATION ----------------------------


 * One electron integrals 
 Pre-screening matrix                    ... done
 Shell pair data                         ... done (   0.005 sec)



           ************************************************************
           *        Program running with 28 parallel MPI-processes    *
           *              working on a common directory               *
           ************************************************************
-------------------------------------------------------------------------------
                                 ORCA SCF
-------------------------------------------------------------------------------

------------
SCF SETTINGS
------------
Hamiltonian:
 Density Functional     Method          .... DFT(GTOs)
 Exchange Functional    Exchange        .... B88
   X-Alpha parameter    XAlpha          ....  0.666667
   Becke's b parameter  XBeta           ....  0.004200
 Correlation Functional Correlation     .... LYP
 LDA part of GGA corr.  LDAOpt          .... VWN-5
 Gradients option       PostSCFGGA      .... off
 Hybrid DFT is turned on
   Fraction HF Exchange ScalHFX         ....  0.200000
   Scaling of DF-GGA-X  ScalDFX         ....  0.720000
   Scaling of DF-GGA-C  ScalDFC         ....  0.810000
   Scaling of DF-LDA-C  ScalLDAC        ....  1.000000
   Perturbative correction              ....  0.000000
   Density functional embedding theory  .... OFF
   NL short-range parameter             ....  4.800000


General Settings:
 Integral files         IntName         .... dummy2
 Hartree-Fock type      HFTyp           .... RHF
 Total Charge           Charge          ....    0
 Multiplicity           Mult            ....    1
 Number of Electrons    NEL             ....  162
 Basis Dimension        Dim             ....  372
 Nuclear Repulsion      ENuc            ....   1795.9933804006 Eh

Convergence Acceleration:
 DIIS                   CNVDIIS         .... on
   Start iteration      DIISMaxIt       ....    12
   Startup error        DIISStart       ....  0.200000
   # of expansion vecs  DIISMaxEq       ....     5
   Bias factor          DIISBfac        ....   1.050
   Max. coefficient     DIISMaxC        ....  10.000
 Newton-Raphson         CNVNR           .... off
 SOSCF                  CNVSOSCF        .... on
   Start iteration      SOSCFMaxIt      ....   150
   Startup grad/error   SOSCFStart      ....  0.003300
 Level Shifting         CNVShift        .... on
   Level shift para.    LevelShift      ....    0.2500
   Turn off err/grad.   ShiftErr        ....    0.0010
 Zerner damping         CNVZerner       .... off
 Static damping         CNVDamp         .... on
   Fraction old density DampFac         ....    0.7000
   Max. Damping (<1)    DampMax         ....    0.9800
   Min. Damping (>=0)   DampMin         ....    0.0000
   Turn off err/grad.   DampErr         ....    0.1000
 Fernandez-Rico         CNVRico         .... off

SCF Procedure:
 Maximum # iterations   MaxIter         ....   125
 SCF integral mode      SCFMode         .... Direct
   Integral package                     .... LIBINT
 Reset frequency        DirectResetFreq ....    20
 Integral Threshold     Thresh          ....  2.500e-11 Eh
 Primitive CutOff       TCut            ....  2.500e-12 Eh

Convergence Tolerance:
 Convergence Check Mode ConvCheckMode   .... Total+1el-Energy
 Convergence forced     ConvForced      .... 0
 Energy Change          TolE            ....  1.000e-08 Eh
 1-El. energy change                    ....  1.000e-05 Eh
 Orbital Gradient       TolG            ....  1.000e-05
 Orbital Rotation angle TolX            ....  1.000e-05
 DIIS Error             TolErr          ....  5.000e-07


Diagonalization of the overlap matrix:
Smallest eigenvalue                        ... 4.530e-04
Time for diagonalization                   ...    0.020 sec
Threshold for overlap eigenvalues          ... 1.000e-08
Number of eigenvalues below threshold      ... 0
Time for construction of square roots      ...    0.015 sec
Total time needed                          ...    0.035 sec

-------------------
DFT GRID GENERATION
-------------------

General Integration Accuracy     IntAcc      ...  4.340
Radial Grid Type                 RadialGrid  ... Gauss-Chebyshev
Angular Grid (max. acc.)         AngularGrid ... Lebedev-110
Angular grid pruning method      GridPruning ... 3 (G Style)
Weight generation scheme         WeightScheme... Becke
Basis function cutoff            BFCut       ...    1.0000e-11
Integration weight cutoff        WCut        ...    1.0000e-14
Grids for H and He will be reduced by one unit

# of grid points (after initial pruning)     ...  54036 (   0.0 sec)
# of grid points (after weights+screening)   ...  47855 (   0.0 sec)
nearest neighbour list constructed           ...    0.0 sec
Grid point re-assignment to atoms done       ...    0.0 sec
Grid point division into batches done        ...    0.0 sec
Reduced shell lists constructed in    0.1 sec

Total number of grid points                  ...    47855
Total number of batches                      ...      767
Average number of points per batch           ...       62
Average number of grid points per atom       ...     1139
Average number of shells per batch           ...    92.00 (51.11%)
Average number of basis functions per batch  ...   192.28 (51.69%)
Average number of large shells per batch     ...    62.03 (67.43%)
Average number of large basis fcns per batch ...   133.34 (69.35%)
Maximum spatial batch extension              ...  16.33,  6.70,  7.56 au
Average spatial batch extension              ...   0.10,  0.08,  0.08 au

Time for grid setup =    0.129 sec

------------------------------
INITIAL GUESS: MODEL POTENTIAL
------------------------------
Loading Hartree-Fock densities                     ... done
Calculating cut-offs                               ... done
Setting up the integral package                    ... done
Initializing the effective Hamiltonian             ... done
Starting the Coulomb interaction                   ... done (   0.0 sec)
Reading the grid                                   ... done
Mapping shells                                     ... done
Starting the XC term evaluation                    ... done (   0.0 sec)
  promolecular density results
     # of electrons  =    161.969924640
     EX              =   -128.701477545
     EC              =     -5.423807709
     EX+EC           =   -134.125285255
Transforming the Hamiltonian                       ... done (   0.0 sec)
Diagonalizing the Hamiltonian                      ... done (   0.0 sec)
Back transforming the eigenvectors                 ... done (   0.0 sec)
Now organizing SCF variables                       ... done
                      ------------------
                      INITIAL GUESS DONE (   0.3 sec)
                      ------------------
--------------
SCF ITERATIONS
--------------
ITER       Energy         Delta-E        Max-DP      RMS-DP      [F,P]     Damp
               ***  Starting incremental Fock matrix formation  ***
  0   -924.2053443207   0.000000000000 0.04011409  0.00138598  0.1117305 0.7000
  1   -924.4110361532  -0.205691832538 0.03143759  0.00103015  0.0617792 0.7000
                               ***Turning on DIIS***
  2   -924.5050255360  -0.093989382825 0.05511836  0.00178036  0.0278199 0.0000
  3   -924.6403385594  -0.135313023329 0.02488397  0.00075706  0.0365093 0.0000
  4   -924.6728832917  -0.032544732329 0.00916853  0.00021122  0.0070419 0.0000
                      *** Initiating the SOSCF procedure ***
                           *** Shutting down DIIS ***
                      *** Re-Reading the Fockian *** 
                      *** Removing any level shift *** 
ITER      Energy       Delta-E        Grad      Rot      Max-DP    RMS-DP
  5   -924.67451819  -0.0016348986  0.000710  0.000710  0.002795  0.000064
               *** Restarting incremental Fock matrix formation ***
  6   -924.67458616  -0.0000679661  0.000364  0.001743  0.001747  0.000040
  7   -924.67457539   0.0000107690  0.000634  0.000908  0.001253  0.000021
  8   -924.67459611  -0.0000207252  0.000112  0.000355  0.000588  0.000011
  9   -924.67459494   0.0000011724  0.000161  0.000293  0.000423  0.000006
 10   -924.67459675  -0.0000018083  0.000033  0.000186  0.000122  0.000003
 11   -924.67459667   0.0000000830  0.000046  0.000106  0.000088  0.000002
 12   -924.67459681  -0.0000001411  0.000005  0.000012  0.000021  0.000001
 13   -924.67459681   0.0000000012  0.000006  0.000008  0.000012  0.000000
                  ***Gradient check signals convergence***
              ***Rediagonalizing the Fockian in SOSCF/NRSCF***

               *****************************************************
               *                     SUCCESS                       *
               *           SCF CONVERGED AFTER  14 CYCLES          *
               *****************************************************

Setting up the final grid:

General Integration Accuracy     IntAcc      ...  4.670
Radial Grid Type                 RadialGrid  ... Gauss-Chebyshev
Angular Grid (max. acc.)         AngularGrid ... Lebedev-302
Angular grid pruning method      GridPruning ... 3 (G Style)
Weight generation scheme         WeightScheme... Becke
Basis function cutoff            BFCut       ...    1.0000e-11
Integration weight cutoff        WCut        ...    1.0000e-14
Grids for H and He will be reduced by one unit

# of grid points (after initial pruning)     ... 210180 (   0.0 sec)
# of grid points (after weights+screening)   ... 181679 (   0.2 sec)
nearest neighbour list constructed           ...    0.0 sec
Grid point re-assignment to atoms done       ...    0.0 sec
Grid point division into batches done        ...    0.6 sec
Reduced shell lists constructed in    0.7 sec

Total number of grid points                  ...   181679
Total number of batches                      ...     2859
Average number of points per batch           ...       63
Average number of grid points per atom       ...     4326
Average number of shells per batch           ...    86.99 (48.33%)
Average number of basis functions per batch  ...   181.64 (48.83%)
Average number of large shells per batch     ...    58.31 (67.03%)
Average number of large basis fcns per batch ...   125.46 (69.07%)
Maximum spatial batch extension              ...  13.48,  5.43,  6.14 au
Average spatial batch extension              ...   0.06,  0.05,  0.05 au

Final grid set up in    0.9 sec
Final integration                            ... done (   0.2 sec)
Change in XC energy                          ...    -0.002152945
Integrated number of electrons               ...   161.999842378
Previous integrated no of electrons          ...   161.983810928

----------------
TOTAL SCF ENERGY
----------------

Total Energy       :         -924.67674976 Eh          -25161.73356 eV

Components:
Nuclear Repulsion  :         1795.99338040 Eh           48871.46446 eV
Electronic Energy  :        -2720.67013016 Eh          -74033.19802 eV
One Electron Energy:        -4817.76826917 Eh         -131098.13950 eV
Two Electron Energy:         2097.09813902 Eh           57064.94149 eV

Virial components:
Potential Energy   :        -1843.83786315 Eh          -50173.37902 eV
Kinetic Energy     :          919.16111339 Eh           25011.64546 eV
Virial Ratio       :            2.00600073


DFT components:
N(Alpha)           :       80.999921188799 electrons
N(Beta)            :       80.999921188799 electrons
N(Total)           :      161.999842377598 electrons
E(X)               :     -103.888435756465 Eh       
E(C)               :       -6.399230633059 Eh       
E(XC)              :     -110.287666389524 Eh       
DFET-embed. en.    :        0.000000000000 Eh       

---------------
SCF CONVERGENCE
---------------

  Last Energy change         ...   -5.0836e-09  Tolerance :   1.0000e-08
  Last MAX-Density change    ...    2.9177e-06  Tolerance :   1.0000e-07
  Last RMS-Density change    ...    6.7296e-08  Tolerance :   5.0000e-09
  Last Orbital Gradient      ...    4.5757e-07  Tolerance :   1.0000e-05
  Last Orbital Rotation      ...    2.1276e-06  Tolerance :   1.0000e-05

             **** THE GBW FILE WAS UPDATED (dummy2.gbw) ****
             **** DENSITY FILE WAS UPDATED (dummy2.scfp) ****
             **** ENERGY FILE WAS UPDATED (dummy2.en.tmp) ****
             **** THE GBW FILE WAS UPDATED (dummy2.gbw) ****
             **** DENSITY FILE WAS UPDATED (dummy2.scfp) ****
----------------
ORBITAL ENERGIES
----------------

  NO   OCC          E(Eh)            E(eV) 
   0   2.0000     -10.194801      -277.4146 
   1   2.0000     -10.193987      -277.3925 
   2   2.0000     -10.193870      -277.3893 
   3   2.0000     -10.193748      -277.3860 
   4   2.0000     -10.193363      -277.3755 
   5   2.0000     -10.192979      -277.3651 
   6   2.0000     -10.181550      -277.0541 
   7   2.0000     -10.181497      -277.0526 
   8   2.0000     -10.181091      -277.0416 
   9   2.0000     -10.180933      -277.0373 
  10   2.0000     -10.180596      -277.0281 
  11   2.0000     -10.180543      -277.0267 
  12   2.0000     -10.180241      -277.0184 
  13   2.0000     -10.180055      -277.0134 
  14   2.0000     -10.179978      -277.0113 
  15   2.0000     -10.179766      -277.0055 
  16   2.0000     -10.179754      -277.0052 
  17   2.0000     -10.179642      -277.0021 
  18   2.0000     -10.179255      -276.9916 
  19   2.0000     -10.179069      -276.9865 
  20   2.0000     -10.177527      -276.9446 
  21   2.0000     -10.177456      -276.9427 
  22   2.0000     -10.177391      -276.9409 
  23   2.0000     -10.177146      -276.9342 
  24   2.0000      -0.869704       -23.6658 
  25   2.0000      -0.859877       -23.3984 
  26   2.0000      -0.845654       -23.0114 
  27   2.0000      -0.832697       -22.6589 
  28   2.0000      -0.784559       -21.3489 
  29   2.0000      -0.757157       -20.6033 
  30   2.0000      -0.747989       -20.3538 
  31   2.0000      -0.742266       -20.1981 
  32   2.0000      -0.735653       -20.0181 
  33   2.0000      -0.731928       -19.9168 
  34   2.0000      -0.725743       -19.7485 
  35   2.0000      -0.696368       -18.9491 
  36   2.0000      -0.630987       -17.1700 
  37   2.0000      -0.620233       -16.8774 
  38   2.0000      -0.604066       -16.4375 
  39   2.0000      -0.603787       -16.4299 
  40   2.0000      -0.584304       -15.8997 
  41   2.0000      -0.579326       -15.7643 
  42   2.0000      -0.569174       -15.4880 
  43   2.0000      -0.564062       -15.3489 
  44   2.0000      -0.529535       -14.4094 
  45   2.0000      -0.517818       -14.0906 
  46   2.0000      -0.498336       -13.5604 
  47   2.0000      -0.478908       -13.0318 
  48   2.0000      -0.476238       -12.9591 
  49   2.0000      -0.464088       -12.6285 
  50   2.0000      -0.445710       -12.1284 
  51   2.0000      -0.444329       -12.0908 
  52   2.0000      -0.438700       -11.9376 
  53   2.0000      -0.428784       -11.6678 
  54   2.0000      -0.425036       -11.5658 
  55   2.0000      -0.422048       -11.4845 
  56   2.0000      -0.416454       -11.3323 
  57   2.0000      -0.415775       -11.3138 
  58   2.0000      -0.412994       -11.2381 
  59   2.0000      -0.408402       -11.1132 
  60   2.0000      -0.404059       -10.9950 
  61   2.0000      -0.394926       -10.7465 
  62   2.0000      -0.388711       -10.5774 
  63   2.0000      -0.375711       -10.2236 
  64   2.0000      -0.371042       -10.0966 
  65   2.0000      -0.353187        -9.6107 
  66   2.0000      -0.340070        -9.2538 
  67   2.0000      -0.338103        -9.2002 
  68   2.0000      -0.334309        -9.0970 
  69   2.0000      -0.327599        -8.9144 
  70   2.0000      -0.324822        -8.8388 
  71   2.0000      -0.324001        -8.8165 
  72   2.0000      -0.315791        -8.5931 
  73   2.0000      -0.283817        -7.7231 
  74   2.0000      -0.253150        -6.8886 
  75   2.0000      -0.251229        -6.8363 
  76   2.0000      -0.246533        -6.7085 
  77   2.0000      -0.240291        -6.5386 
  78   2.0000      -0.236528        -6.4363 
  79   2.0000      -0.214947        -5.8490 
  80   2.0000      -0.181754        -4.9458 
  81   0.0000      -0.054140        -1.4732 
  82   0.0000      -0.022760        -0.6193 
  83   0.0000      -0.012581        -0.3423 
  84   0.0000      -0.000827        -0.0225 
  85   0.0000       0.011518         0.3134 
  86   0.0000       0.014077         0.3830 
  87   0.0000       0.025968         0.7066 
  88   0.0000       0.032787         0.8922 
  89   0.0000       0.087052         2.3688 
  90   0.0000       0.090258         2.4560 
  91   0.0000       0.092989         2.5304 
  92   0.0000       0.114354         3.1117 
  93   0.0000       0.114960         3.1282 
  94   0.0000       0.117377         3.1940 
  95   0.0000       0.127247         3.4626 
  96   0.0000       0.133909         3.6438 
  97   0.0000       0.140007         3.8098 
  98   0.0000       0.143571         3.9068 
  99   0.0000       0.144475         3.9314 
 100   0.0000       0.148967         4.0536 
 101   0.0000       0.166776         4.5382 
 102   0.0000       0.167193         4.5495 
 103   0.0000       0.179967         4.8971 
 104   0.0000       0.182042         4.9536 
 105   0.0000       0.192818         5.2468 
 106   0.0000       0.203850         5.5470 
 107   0.0000       0.216312         5.8862 
 108   0.0000       0.233554         6.3553 
 109   0.0000       0.241375         6.5681 
 110   0.0000       0.259635         7.0650 
 111   0.0000       0.265315         7.2196 
 112   0.0000       0.269675         7.3382 
 113   0.0000       0.272081         7.4037 
 114   0.0000       0.280399         7.6300 
 115   0.0000       0.281727         7.6662 
 116   0.0000       0.288285         7.8446 
 117   0.0000       0.291071         7.9204 
 118   0.0000       0.303556         8.2602 
 119   0.0000       0.305850         8.3226 
 120   0.0000       0.320660         8.7256 
 121   0.0000       0.340979         9.2785 
 122   0.0000       0.347792         9.4639 
 123   0.0000       0.365022         9.9328 
 124   0.0000       0.368480        10.0268 
 125   0.0000       0.371265        10.1026 
 126   0.0000       0.384211        10.4549 
 127   0.0000       0.394041        10.7224 
 128   0.0000       0.396287        10.7835 
 129   0.0000       0.436964        11.8904 
 130   0.0000       0.455782        12.4025 
 131   0.0000       0.487733        13.2719 
 132   0.0000       0.499327        13.5874 
 133   0.0000       0.501628        13.6500 
 134   0.0000       0.513502        13.9731 
 135   0.0000       0.525661        14.3040 
 136   0.0000       0.531081        14.4514 
 137   0.0000       0.534064        14.5326 
 138   0.0000       0.543448        14.7880 
 139   0.0000       0.547572        14.9002 
 140   0.0000       0.549750        14.9595 
 141   0.0000       0.553103        15.0507 
 142   0.0000       0.558134        15.1876 
 143   0.0000       0.562970        15.3192 
 144   0.0000       0.571967        15.5640 
 145   0.0000       0.573879        15.6160 
 146   0.0000       0.577565        15.7164 
 147   0.0000       0.580700        15.8016 
 148   0.0000       0.585079        15.9208 
 149   0.0000       0.586823        15.9683 
 150   0.0000       0.589670        16.0457 
 151   0.0000       0.593222        16.1424 
 152   0.0000       0.597343        16.2545 
 153   0.0000       0.600260        16.3339 
 154   0.0000       0.604371        16.4458 
 155   0.0000       0.605633        16.4801 
 156   0.0000       0.607350        16.5268 
 157   0.0000       0.611464        16.6388 
 158   0.0000       0.614015        16.7082 
 159   0.0000       0.615104        16.7378 
 160   0.0000       0.625134        17.0108 
 161   0.0000       0.626761        17.0550 
 162   0.0000       0.629234        17.1223 
 163   0.0000       0.630747        17.1635 
 164   0.0000       0.633695        17.2437 
 165   0.0000       0.635311        17.2877 
 166   0.0000       0.638932        17.3862 
 167   0.0000       0.644692        17.5430 
 168   0.0000       0.650016        17.6878 
 169   0.0000       0.657673        17.8962 
 170   0.0000       0.660522        17.9737 
 171   0.0000       0.667519        18.1641 
 172   0.0000       0.668839        18.2000 
 173   0.0000       0.678712        18.4687 
 174   0.0000       0.687496        18.7077 
 175   0.0000       0.690623        18.7928 
 176   0.0000       0.698950        19.0194 
 177   0.0000       0.707745        19.2587 
 178   0.0000       0.709010        19.2931 
 179   0.0000       0.717324        19.5194 
 180   0.0000       0.742994        20.2179 
 181   0.0000       0.755535        20.5592 
 182   0.0000       0.775642        21.1063 
 183   0.0000       0.798003        21.7148 
 184   0.0000       0.822605        22.3842 
 185   0.0000       0.825517        22.4635 
 186   0.0000       0.830393        22.5961 
 187   0.0000       0.832709        22.6592 
 188   0.0000       0.837854        22.7992 
 189   0.0000       0.839550        22.8453 
 190   0.0000       0.841643        22.9023 
 191   0.0000       0.848609        23.0918 
 192   0.0000       0.851052        23.1583 
 193   0.0000       0.854092        23.2410 
 194   0.0000       0.869924        23.6718 
 195   0.0000       0.874390        23.7934 
 196   0.0000       0.886762        24.1300 
 197   0.0000       0.893975        24.3263 
 198   0.0000       0.897229        24.4149 
 199   0.0000       0.903376        24.5821 
 200   0.0000       0.910847        24.7854 
 201   0.0000       0.919212        25.0130 
 202   0.0000       0.920812        25.0566 
 203   0.0000       0.927634        25.2422 
 204   0.0000       0.931334        25.3429 
 205   0.0000       0.935442        25.4547 
 206   0.0000       0.936744        25.4901 
 207   0.0000       0.940963        25.6049 
 208   0.0000       0.944582        25.7034 
 209   0.0000       0.951009        25.8783 
 210   0.0000       0.955079        25.9890 
 211   0.0000       0.966577        26.3019 
 212   0.0000       0.972760        26.4702 
 213   0.0000       0.995251        27.0822 
 214   0.0000       1.003204        27.2986 
 215   0.0000       1.013606        27.5816 
 216   0.0000       1.014950        27.6182 
 217   0.0000       1.024404        27.8754 
 218   0.0000       1.030746        28.0480 
 219   0.0000       1.034470        28.1493 
 220   0.0000       1.041232        28.3334 
 221   0.0000       1.056394        28.7459 
 222   0.0000       1.069060        29.0906 
 223   0.0000       1.074168        29.2296 
 224   0.0000       1.080880        29.4123 
 225   0.0000       1.086314        29.5601 
 226   0.0000       1.115088        30.3431 
 227   0.0000       1.133118        30.8337 
 228   0.0000       1.145678        31.1755 
 229   0.0000       1.158080        31.5130 
 230   0.0000       1.162922        31.6447 
 231   0.0000       1.183143        32.1950 
 232   0.0000       1.188522        32.3413 
 233   0.0000       1.197819        32.5943 
 234   0.0000       1.210888        32.9499 
 235   0.0000       1.214959        33.0607 
 236   0.0000       1.226311        33.3696 
 237   0.0000       1.242176        33.8013 
 238   0.0000       1.256635        34.1948 
 239   0.0000       1.280676        34.8490 
 240   0.0000       1.293489        35.1976 
 241   0.0000       1.320174        35.9238 
 242   0.0000       1.339698        36.4550 
 243   0.0000       1.350646        36.7529 
 244   0.0000       1.357049        36.9272 
 245   0.0000       1.377663        37.4881 
 246   0.0000       1.383648        37.6510 
 247   0.0000       1.396622        38.0040 
 248   0.0000       1.404189        38.2099 
 249   0.0000       1.417090        38.5610 
 250   0.0000       1.427462        38.8432 
 251   0.0000       1.445999        39.3476 
 252   0.0000       1.463581        39.8261 
 253   0.0000       1.473255        40.0893 
 254   0.0000       1.484857        40.4050 
 255   0.0000       1.499216        40.7957 
 256   0.0000       1.503022        40.8993 
 257   0.0000       1.505669        40.9713 
 258   0.0000       1.514756        41.2186 
 259   0.0000       1.521432        41.4003 
 260   0.0000       1.527984        41.5786 
 261   0.0000       1.533644        41.7326 
 262   0.0000       1.538601        41.8675 
 263   0.0000       1.577878        42.9362 
 264   0.0000       1.598353        43.4934 
 265   0.0000       1.606778        43.7226 
 266   0.0000       1.619853        44.0785 
 267   0.0000       1.634322        44.4722 
 268   0.0000       1.639269        44.6068 
 269   0.0000       1.653400        44.9913 
 270   0.0000       1.664092        45.2823 
 271   0.0000       1.681706        45.7615 
 272   0.0000       1.739232        47.3269 
 273   0.0000       1.761704        47.9384 
 274   0.0000       1.787846        48.6498 
 275   0.0000       1.803263        49.0693 
 276   0.0000       1.807417        49.1823 
 277   0.0000       1.814622        49.3784 
 278   0.0000       1.832452        49.8635 
 279   0.0000       1.850005        50.3412 
 280   0.0000       1.860254        50.6201 
 281   0.0000       1.861986        50.6672 
 282   0.0000       1.866019        50.7770 
 283   0.0000       1.886751        51.3411 
 284   0.0000       1.890133        51.4331 
 285   0.0000       1.901193        51.7341 
 286   0.0000       1.908518        51.9334 
 287   0.0000       1.942635        52.8618 
 288   0.0000       1.984922        54.0125 
 289   0.0000       1.989532        54.1379 
 290   0.0000       1.995661        54.3047 
 291   0.0000       1.999179        54.4004 
 292   0.0000       2.002262        54.4843 
 293   0.0000       2.009114        54.6708 
 294   0.0000       2.014424        54.8153 
 295   0.0000       2.017122        54.8887 
 296   0.0000       2.020961        54.9931 
 297   0.0000       2.034751        55.3684 
 298   0.0000       2.040110        55.5142 
 299   0.0000       2.046298        55.6826 
 300   0.0000       2.070636        56.3449 
 301   0.0000       2.088374        56.8275 
 302   0.0000       2.096020        57.0356 
 303   0.0000       2.103536        57.2401 
 304   0.0000       2.106584        57.3231 
 305   0.0000       2.110599        57.4323 
 306   0.0000       2.123576        57.7855 
 307   0.0000       2.151561        58.5469 
 308   0.0000       2.167747        58.9874 
 309   0.0000       2.176634        59.2292 
 310   0.0000       2.181797        59.3697 
 311   0.0000       2.192328        59.6563 
 312   0.0000       2.207262        60.0627 
 313   0.0000       2.211484        60.1775 
 314   0.0000       2.219225        60.3882 
 315   0.0000       2.225581        60.5611 
 316   0.0000       2.236032        60.8455 
 317   0.0000       2.246690        61.1355 
 318   0.0000       2.251286        61.2606 
 319   0.0000       2.262536        61.5667 
 320   0.0000       2.288406        62.2707 
 321   0.0000       2.300136        62.5899 
 322   0.0000       2.302991        62.6676 
 323   0.0000       2.345507        63.8245 
 324   0.0000       2.362090        64.2757 
 325   0.0000       2.377589        64.6975 
 326   0.0000       2.383895        64.8691 
 327   0.0000       2.386697        64.9453 
 328   0.0000       2.402033        65.3626 
 329   0.0000       2.431696        66.1698 
 330   0.0000       2.468642        67.1752 
 331   0.0000       2.491688        67.8023 
 332   0.0000       2.499418        68.0126 
 333   0.0000       2.522277        68.6347 
 334   0.0000       2.534801        68.9754 
 335   0.0000       2.550925        69.4142 
 336   0.0000       2.573457        70.0273 
 337   0.0000       2.578300        70.1591 
 338   0.0000       2.581936        70.2580 
 339   0.0000       2.591550        70.5197 
 340   0.0000       2.599149        70.7264 
 341   0.0000       2.614332        71.1396 
 342   0.0000       2.630718        71.5855 
 343   0.0000       2.636076        71.7313 
 344   0.0000       2.647070        72.0304 
 345   0.0000       2.667781        72.5940 
 346   0.0000       2.670783        72.6757 
 347   0.0000       2.704114        73.5827 
 348   0.0000       2.709373        73.7258 
 349   0.0000       2.727151        74.2095 
 350   0.0000       2.744540        74.6827 
 351   0.0000       2.746573        74.7380 
 352   0.0000       2.760551        75.1184 
 353   0.0000       2.764520        75.2264 
 354   0.0000       2.773147        75.4612 
 355   0.0000       2.777452        75.5783 
 356   0.0000       2.782292        75.7100 
 357   0.0000       2.783379        75.7396 
 358   0.0000       2.813456        76.5580 
 359   0.0000       2.831595        77.0516 
 360   0.0000       2.870767        78.1175 
 361   0.0000       2.876386        78.2704 
 362   0.0000       2.902872        78.9912 
 363   0.0000       2.937523        79.9341 
 364   0.0000       2.970075        80.8198 
 365   0.0000       3.075243        83.6816 
 366   0.0000       3.157454        85.9187 
 367   0.0000       3.220304        87.6289 
 368   0.0000       3.243736        88.2666 
 369   0.0000       3.306614        89.9775 
 370   0.0000       3.379515        91.9613 
 371   0.0000       3.436640        93.5157 

                    ********************************
                    * MULLIKEN POPULATION ANALYSIS *
                    ********************************

-----------------------
MULLIKEN ATOMIC CHARGES
-----------------------
   0 C :    0.086262
   1 C :    0.085598
   2 C :   -0.157608
   3 C :   -0.167359
   4 C :    0.092112
   5 C :    0.091612
   6 C :   -0.183909
   7 C :   -0.182174
   8 C :    0.095311
   9 C :   -0.171923
  10 C :   -0.165397
  11 C :   -0.187310
  12 C :   -0.188201
  13 C :   -0.157677
  14 C :   -0.130413
  15 C :   -0.118679
  16 C :   -0.121936
  17 C :   -0.127380
  18 C :   -0.177490
  19 C :    0.087965
  20 C :   -0.172158
  21 C :   -0.126143
  22 C :   -0.130177
  23 C :   -0.187041
  24 H :    0.129407
  25 H :    0.128844
  26 H :    0.131896
  27 H :    0.132748
  28 H :    0.127398
  29 H :    0.127720
  30 H :    0.132994
  31 H :    0.134108
  32 H :    0.125968
  33 H :    0.124961
  34 H :    0.124836
  35 H :    0.127905
  36 H :    0.124461
  37 H :    0.124936
  38 H :    0.126699
  39 H :    0.128754
  40 H :    0.129857
  41 H :    0.130625
Sum of atomic charges:   -0.0000000

--------------------------------
MULLIKEN REDUCED ORBITAL CHARGES
--------------------------------
  0 C s       :     3.147795  s :     3.147795
      pz      :     0.871857  p :     2.724111
      px      :     0.949861
      py      :     0.902393
      dz2     :     0.009963  d :     0.041833
      dxz     :     0.006509
      dyz     :     0.012022
      dx2y2   :     0.005993
      dxy     :     0.007346
  1 C s       :     3.142257  s :     3.142257
      pz      :     0.872235  p :     2.730551
      px      :     0.961048
      py      :     0.897268
      dz2     :     0.009885  d :     0.041594
      dxz     :     0.008274
      dyz     :     0.010351
      dx2y2   :     0.007141
      dxy     :     0.005943
  2 C s       :     3.193146  s :     3.193146
      pz      :     0.970043  p :     2.927687
      px      :     0.973335
      py      :     0.984309
      dz2     :     0.008537  d :     0.036775
      dxz     :     0.008826
      dyz     :     0.008543
      dx2y2   :     0.005666
      dxy     :     0.005202
  3 C s       :     3.193369  s :     3.193369
      pz      :     0.974060  p :     2.937290
      px      :     0.972860
      py      :     0.990369
      dz2     :     0.008747  d :     0.036700
      dxz     :     0.012505
      dyz     :     0.004419
      dx2y2   :     0.005809
      dxy     :     0.005219
  4 C s       :     3.139895  s :     3.139895
      pz      :     0.870178  p :     2.726448
      px      :     0.887771
      py      :     0.968500
      dz2     :     0.009821  d :     0.041545
      dxz     :     0.012257
      dyz     :     0.006146
      dx2y2   :     0.006728
      dxy     :     0.006593
  5 C s       :     3.140943  s :     3.140943
      pz      :     0.861937  p :     2.725831
      px      :     0.888539
      py      :     0.975354
      dz2     :     0.010078  d :     0.041614
      dxz     :     0.012147
      dyz     :     0.006839
      dx2y2   :     0.006804
      dxy     :     0.005746
  6 C s       :     3.203415  s :     3.203415
      pz      :     0.980989  p :     2.944233
      px      :     0.974749
      py      :     0.988496
      dz2     :     0.009278  d :     0.036261
      dxz     :     0.008149
      dyz     :     0.007305
      dx2y2   :     0.006066
      dxy     :     0.005464
  7 C s       :     3.200149  s :     3.200149
      pz      :     0.979774  p :     2.945731
      px      :     0.987875
      py      :     0.978082
      dz2     :     0.008592  d :     0.036295
      dxz     :     0.009048
      dyz     :     0.007540
      dx2y2   :     0.005994
      dxy     :     0.005120
  8 C s       :     3.138368  s :     3.138368
      pz      :     0.859089  p :     2.725001
      px      :     0.971576
      py      :     0.894336
      dz2     :     0.009975  d :     0.041321
      dxz     :     0.007199
      dyz     :     0.011531
      dx2y2   :     0.007030
      dxy     :     0.005586
  9 C s       :     3.197088  s :     3.197088
      pz      :     0.973015  p :     2.938273
      px      :     0.984276
      py      :     0.980982
      dz2     :     0.009870  d :     0.036563
      dxz     :     0.006899
      dyz     :     0.009044
      dx2y2   :     0.005808
      dxy     :     0.004941
 10 C s       :     3.194324  s :     3.194324
      pz      :     0.969860  p :     2.934353
      px      :     0.976722
      py      :     0.987771
      dz2     :     0.009078  d :     0.036720
      dxz     :     0.011095
      dyz     :     0.006171
      dx2y2   :     0.005605
      dxy     :     0.004771
 11 C s       :     3.204367  s :     3.204367
      pz      :     0.983710  p :     2.946790
      px      :     0.965831
      py      :     0.997250
      dz2     :     0.007771  d :     0.036153
      dxz     :     0.009608
      dyz     :     0.006704
      dx2y2   :     0.005801
      dxy     :     0.006269
 12 C s       :     3.204785  s :     3.204785
      pz      :     0.983564  p :     2.947216
      px      :     0.976956
      py      :     0.986696
      dz2     :     0.008094  d :     0.036200
      dxz     :     0.010538
      dyz     :     0.005331
      dx2y2   :     0.006804
      dxy     :     0.005434
 13 C s       :     3.185234  s :     3.185234
      pz      :     0.977278  p :     2.936070
      px      :     0.992937
      py      :     0.965855
      dz2     :     0.008489  d :     0.036373
      dxz     :     0.003744
      dyz     :     0.013467
      dx2y2   :     0.005113
      dxy     :     0.005561
 14 C s       :     3.192440  s :     3.192440
      pz      :     0.968445  p :     2.901289
      px      :     0.982088
      py      :     0.950756
      dz2     :     0.008611  d :     0.036683
      dxz     :     0.005982
      dyz     :     0.011017
      dx2y2   :     0.005192
      dxy     :     0.005883
 15 C s       :     3.190846  s :     3.190846
      pz      :     0.942169  p :     2.892475
      px      :     0.999535
      py      :     0.950771
      dz2     :     0.009935  d :     0.035358
      dxz     :     0.006399
      dyz     :     0.008558
      dx2y2   :     0.006115
      dxy     :     0.004350
 16 C s       :     3.192280  s :     3.192280
      pz      :     0.937215  p :     2.894286
      px      :     1.006660
      py      :     0.950412
      dz2     :     0.010177  d :     0.035370
      dxz     :     0.007762
      dyz     :     0.008180
      dx2y2   :     0.003573
      dxy     :     0.005679
 17 C s       :     3.194894  s :     3.194894
      pz      :     0.957646  p :     2.895767
      px      :     0.971223
      py      :     0.966899
      dz2     :     0.009488  d :     0.036719
      dxz     :     0.006077
      dyz     :     0.010667
      dx2y2   :     0.005363
      dxy     :     0.005124
 18 C s       :     3.190157  s :     3.190157
      pz      :     0.979739  p :     2.951345
      px      :     1.004844
      py      :     0.966761
      dz2     :     0.010214  d :     0.035988
      dxz     :     0.003765
      dyz     :     0.011653
      dx2y2   :     0.005128
      dxy     :     0.005228
 19 C s       :     3.144454  s :     3.144454
      pz      :     0.860399  p :     2.725942
      px      :     0.964354
      py      :     0.901189
      dz2     :     0.010184  d :     0.041640
      dxz     :     0.006259
      dyz     :     0.012801
      dx2y2   :     0.005847
      dxy     :     0.006548
 20 C s       :     3.189225  s :     3.189225
      pz      :     0.974206  p :     2.946974
      px      :     1.007683
      py      :     0.965084
      dz2     :     0.009184  d :     0.035959
      dxz     :     0.004385
      dyz     :     0.012449
      dx2y2   :     0.004856
      dxy     :     0.005085
 21 C s       :     3.193646  s :     3.193646
      pz      :     0.965194  p :     2.895852
      px      :     0.971602
      py      :     0.959056
      dz2     :     0.010412  d :     0.036645
      dxz     :     0.004735
      dyz     :     0.010202
      dx2y2   :     0.005885
      dxy     :     0.005410
 22 C s       :     3.195301  s :     3.195301
      pz      :     0.961479  p :     2.898433
      px      :     0.977950
      py      :     0.959003
      dz2     :     0.008166  d :     0.036443
      dxz     :     0.003908
      dyz     :     0.011836
      dx2y2   :     0.006322
      dxy     :     0.006212
 23 C s       :     3.197196  s :     3.197196
      pz      :     0.981278  p :     2.954144
      px      :     1.010056
      py      :     0.962811
      dz2     :     0.007848  d :     0.035700
      dxz     :     0.004598
      dyz     :     0.011545
      dx2y2   :     0.005369
      dxy     :     0.006340
 24 H s       :     0.870593  s :     0.870593
 25 H s       :     0.871156  s :     0.871156
 26 H s       :     0.868104  s :     0.868104
 27 H s       :     0.867252  s :     0.867252
 28 H s       :     0.872602  s :     0.872602
 29 H s       :     0.872280  s :     0.872280
[...]
      dxy     :     0.005917
 21 C s       :     3.192206  s :     3.192206
      pz      :     0.964014  p :     2.905203
      px      :     0.950403
      py      :     0.990786
      dz2     :     0.008226  d :     0.036286
      dxz     :     0.012014
      dyz     :     0.004504
      dx2y2   :     0.005289
      dxy     :     0.006254
 22 C s       :     3.192196  s :     3.192196
      pz      :     0.963065  p :     2.905237
      px      :     0.951232
      py      :     0.990940
      dz2     :     0.008196  d :     0.036290
      dxz     :     0.012137
      dyz     :     0.004522
      dx2y2   :     0.005236
      dxy     :     0.006198
 23 C s       :     3.194944  s :     3.194944
      pz      :     0.987532  p :     2.940841
      px      :     0.959009
      py      :     0.994300
      dz2     :     0.007847  d :     0.035826
      dxz     :     0.012821
      dyz     :     0.003859
      dx2y2   :     0.005375
      dxy     :     0.005924
 24 H s       :     0.868315  s :     0.868315
 25 H s       :     0.869800  s :     0.869800
 26 H s       :     0.869603  s :     0.869603
 27 H s       :     0.868452  s :     0.868452
 28 H s       :     0.869234  s :     0.869234
 29 H s       :     0.868760  s :     0.868760
 30 H s       :     0.868639  s :     0.868639
 31 H s       :     0.869439  s :     0.869439
 32 H s       :     0.870315  s :     0.870315
 33 H s       :     0.872173  s :     0.872173
 34 H s       :     0.871924  s :     0.871924
 35 H s       :     0.870505  s :     0.870505
 36 H s       :     0.869520  s :     0.869520
 37 H s       :     0.873123  s :     0.873123
 38 H s       :     0.872851  s :     0.872851
 39 H s       :     0.869599  s :     0.869599
 40 H s       :     0.868366  s :     0.868366
 41 H s       :     0.868380  s :     0.868380


                     *******************************
                     * LOEWDIN POPULATION ANALYSIS *
                     *******************************

----------------------
LOEWDIN ATOMIC CHARGES
----------------------
   0 C :   -0.014529
   1 C :   -0.014938
   2 C :   -0.126221
   3 C :   -0.125896
   4 C :   -0.015601
   5 C :   -0.015611
   6 C :   -0.125932
   7 C :   -0.126172
   8 C :   -0.014915
   9 C :   -0.126048
  10 C :   -0.126088
  11 C :   -0.126120
  12 C :   -0.125990
  13 C :   -0.127765
  14 C :   -0.127804
  15 C :   -0.131234
  16 C :   -0.131217
  17 C :   -0.127849
  18 C :   -0.127703
  19 C :   -0.014523
  20 C :   -0.127838
  21 C :   -0.127769
  22 C :   -0.127806
  23 C :   -0.127791
  24 H :    0.133403
  25 H :    0.133036
  26 H :    0.133075
  27 H :    0.133362
  28 H :    0.133267
  29 H :    0.133196
  30 H :    0.133235
  31 H :    0.133222
  32 H :    0.132321
  33 H :    0.131200
  34 H :    0.131265
  35 H :    0.132276
  36 H :    0.132442
  37 H :    0.131032
  38 H :    0.131093
  39 H :    0.132424
  40 H :    0.131762
  41 H :    0.131747

-------------------------------
LOEWDIN REDUCED ORBITAL CHARGES
-------------------------------
  0 C s       :     2.869518  s :     2.869518
      pz      :     1.053134  p :     3.043174
      px      :     1.019533
      py      :     0.970507
      dz2     :     0.027131  d :     0.101837
      dxz     :     0.031872
      dyz     :     0.013630
      dx2y2   :     0.015414
      dxy     :     0.013791
  1 C s       :     2.869342  s :     2.869342
      pz      :     1.054280  p :     3.043736
      px      :     1.020303
      py      :     0.969153
      dz2     :     0.027172  d :     0.101860
      dxz     :     0.032434
      dyz     :     0.013421
      dx2y2   :     0.015157
      dxy     :     0.013675
  2 C s       :     2.916075  s :     2.916075
      pz      :     1.056890  p :     3.125459
      px      :     1.068105
      py      :     1.000465
      dz2     :     0.018578  d :     0.084687
      dxz     :     0.031302
      dyz     :     0.007481
      dx2y2   :     0.013925
      dxy     :     0.013400
  3 C s       :     2.916031  s :     2.916031
      pz      :     1.056815  p :     3.125247
      px      :     1.066930
      py      :     1.001502
      dz2     :     0.018646  d :     0.084618
      dxz     :     0.030297
      dyz     :     0.008128
      dx2y2   :     0.013811
      dxy     :     0.013735
  4 C s       :     2.868853  s :     2.868853
      pz      :     1.054286  p :     3.044689
      px      :     1.020069
      py      :     0.970334
      dz2     :     0.027188  d :     0.102059
      dxz     :     0.032461
      dyz     :     0.013425
      dx2y2   :     0.015207
      dxy     :     0.013778
  5 C s       :     2.868848  s :     2.868848
      pz      :     1.054713  p :     3.044697
      px      :     1.019964
      py      :     0.970021
      dz2     :     0.027280  d :     0.102066
      dxz     :     0.032553
      dyz     :     0.013425
      dx2y2   :     0.015116
      dxy     :     0.013691
  6 C s       :     2.916045  s :     2.916045
      pz      :     1.056878  p :     3.125270
      px      :     1.067141
      py      :     1.001250
      dz2     :     0.018686  d :     0.084618
      dxz     :     0.030566
      dyz     :     0.008182
      dx2y2   :     0.013618
      dxy     :     0.013565
  7 C s       :     2.916078  s :     2.916078
      pz      :     1.057440  p :     3.125407
      px      :     1.067755
      py      :     1.000211
      dz2     :     0.018783  d :     0.084688
      dxz     :     0.031154
      dyz     :     0.007326
      dx2y2   :     0.013985
      dxy     :     0.013440
  8 C s       :     2.869346  s :     2.869346
      pz      :     1.054719  p :     3.043709
      px      :     1.020172
      py      :     0.968818
      dz2     :     0.027263  d :     0.101861
      dxz     :     0.032523
      dyz     :     0.013422
      dx2y2   :     0.015072
      dxy     :     0.013581
  9 C s       :     2.916046  s :     2.916046
      pz      :     1.057020  p :     3.125322
      px      :     1.067060
      py      :     1.001242
      dz2     :     0.018724  d :     0.084680
      dxz     :     0.030591
      dyz     :     0.008174
      dx2y2   :     0.013634
      dxy     :     0.013557
 10 C s       :     2.916044  s :     2.916044
      pz      :     1.057318  p :     3.125403
      px      :     1.067871
      py      :     1.000214
      dz2     :     0.018748  d :     0.084641
      dxz     :     0.031149
      dyz     :     0.007327
      dx2y2   :     0.013968
      dxy     :     0.013448
 11 C s       :     2.916050  s :     2.916050
      pz      :     1.056760  p :     3.125430
      px      :     1.068226
      py      :     1.000445
      dz2     :     0.018551  d :     0.084640
      dxz     :     0.031295
      dyz     :     0.007480
      dx2y2   :     0.013909
      dxy     :     0.013404
 12 C s       :     2.916046  s :     2.916046
      pz      :     1.056941  p :     3.125265
      px      :     1.066846
      py      :     1.001478
      dz2     :     0.018676  d :     0.084679
      dxz     :     0.030316
      dyz     :     0.008127
      dx2y2   :     0.013831
      dxy     :     0.013730
 13 C s       :     2.917329  s :     2.917329
      pz      :     1.056051  p :     3.126552
      px      :     1.066426
      py      :     1.004075
      dz2     :     0.018310  d :     0.083884
      dxz     :     0.030320
      dyz     :     0.008233
      dx2y2   :     0.013626
      dxy     :     0.013394
 14 C s       :     2.917302  s :     2.917302
      pz      :     1.061896  p :     3.124924
      px      :     1.071970
      py      :     0.991058
      dz2     :     0.019371  d :     0.085578
      dxz     :     0.030813
      dyz     :     0.007744
      dx2y2   :     0.014047
      dxy     :     0.013603
 15 C s       :     2.918102  s :     2.918102
      pz      :     1.063058  p :     3.128216
      px      :     1.071276
      py      :     0.993882
      dz2     :     0.026480  d :     0.084916
      dxz     :     0.024550
      dyz     :     0.013927
      dx2y2   :     0.013884
      dxy     :     0.006074
 16 C s       :     2.918079  s :     2.918079
      pz      :     1.062734  p :     3.128220
      px      :     1.071394
      py      :     0.994092
      dz2     :     0.026372  d :     0.084919
      dxz     :     0.024485
      dyz     :     0.013917
      dx2y2   :     0.013999
      dxy     :     0.006146
 17 C s       :     2.917317  s :     2.917317
      pz      :     1.061557  p :     3.124961
      px      :     1.072122
      py      :     0.991281
      dz2     :     0.019178  d :     0.085572
      dxz     :     0.030941
      dyz     :     0.007898
      dx2y2   :     0.013996
      dxy     :     0.013559
 18 C s       :     2.917339  s :     2.917339
      pz      :     1.055962  p :     3.126486
      px      :     1.066258
      py      :     1.004266
      dz2     :     0.018271  d :     0.083878
      dxz     :     0.030068
      dyz     :     0.008164
      dx2y2   :     0.013825
      dxy     :     0.013552
 19 C s       :     2.869514  s :     2.869514
      pz      :     1.052687  p :     3.043175
      px      :     1.019671
      py      :     0.970818
      dz2     :     0.027025  d :     0.101834
      dxz     :     0.031792
      dyz     :     0.013619
      dx2y2   :     0.015512
      dxy     :     0.013886
 20 C s       :     2.917348  s :     2.917348
      pz      :     1.055917  p :     3.126593
      px      :     1.067209
      py      :     1.003467
      dz2     :     0.018193  d :     0.083897
      dxz     :     0.031002
      dyz     :     0.007541
      dx2y2   :     0.013958
      dxy     :     0.013203
 21 C s       :     2.917321  s :     2.917321
      pz      :     1.061367  p :     3.124875
      px      :     1.071771
      py      :     0.991737
      dz2     :     0.019270  d :     0.085574
      dxz     :     0.030116
      dyz     :     0.008421
      dx2y2   :     0.013921
      dxy     :     0.013845
 22 C s       :     2.917329  s :     2.917329
      pz      :     1.061757  p :     3.124899
      px      :     1.071644
      py      :     0.991498
      dz2     :     0.019306  d :     0.085578
      dxz     :     0.030371
      dyz     :     0.008502
      dx2y2   :     0.013726
      dxy     :     0.013673
 23 C s       :     2.917362  s :     2.917362
      pz      :     1.056444  p :     3.126532
      px      :     1.066843
      py      :     1.003245
      dz2     :     0.018367  d :     0.083897
      dxz     :     0.030881
      dyz     :     0.007400
      dx2y2   :     0.014012
      dxy     :     0.013237
 24 H s       :     0.866597  s :     0.866597
 25 H s       :     0.866964  s :     0.866964
 26 H s       :     0.866925  s :     0.866925
 27 H s       :     0.866638  s :     0.866638
 28 H s       :     0.866733  s :     0.866733
 29 H s       :     0.866804  s :     0.866804
 30 H s       :     0.866765  s :     0.866765
 31 H s       :     0.866778  s :     0.866778
 32 H s       :     0.867679  s :     0.867679
 33 H s       :     0.868800  s :     0.868800
 34 H s       :     0.868735  s :     0.868735
 35 H s       :     0.867724  s :     0.867724
 36 H s       :     0.867558  s :     0.867558
 37 H s       :     0.868968  s :     0.868968
 38 H s       :     0.868907  s :     0.868907
 39 H s       :     0.867576  s :     0.867576
 40 H s       :     0.868238  s :     0.868238
 41 H s       :     0.868253  s :     0.868253


                      *****************************
                      * MAYER POPULATION ANALYSIS *
                      *****************************

  NA   - Mulliken gross atomic population
  ZA   - Total nuclear charge
  QA   - Mulliken gross atomic charge
  VA   - Mayer's total valence
  BVA  - Mayer's bonded valence
  FA   - Mayer's free valence

  ATOM       NA         ZA         QA         VA         BVA        FA
  0 C      5.9098     6.0000     0.0902     3.9866     3.9866     0.0000
  1 C      5.9047     6.0000     0.0953     3.9763     3.9763     0.0000
  2 C      6.1796     6.0000    -0.1796     3.9128     3.9128    -0.0000
  3 C      6.1798     6.0000    -0.1798     3.9121     3.9121     0.0000
  4 C      5.9031     6.0000     0.0969     3.9764     3.9764    -0.0000
  5 C      5.9030     6.0000     0.0970     3.9761     3.9761     0.0000
  6 C      6.1801     6.0000    -0.1801     3.9121     3.9121    -0.0000
  7 C      6.1795     6.0000    -0.1795     3.9130     3.9130     0.0000
  8 C      5.9045     6.0000     0.0955     3.9760     3.9760    -0.0000
  9 C      6.1800     6.0000    -0.1800     3.9139     3.9139    -0.0000
 10 C      6.1796     6.0000    -0.1796     3.9113     3.9113    -0.0000
 11 C      6.1796     6.0000    -0.1796     3.9112     3.9112    -0.0000
 12 C      6.1797     6.0000    -0.1797     3.9140     3.9140    -0.0000
 13 C      6.1724     6.0000    -0.1724     3.9240     3.9240     0.0000
 14 C      6.1325     6.0000    -0.1325     3.9462     3.9462     0.0000
 15 C      6.1240     6.0000    -0.1240     3.9441     3.9441    -0.0000
 16 C      6.1239     6.0000    -0.1239     3.9442     3.9442     0.0000
 17 C      6.1326     6.0000    -0.1326     3.9460     3.9460    -0.0000
 18 C      6.1720     6.0000    -0.1720     3.9241     3.9241     0.0000
 19 C      5.9099     6.0000     0.0901     3.9869     3.9869     0.0000
 20 C      6.1717     6.0000    -0.1717     3.9231     3.9231     0.0000
 21 C      6.1337     6.0000    -0.1337     3.9469     3.9469     0.0000
 22 C      6.1337     6.0000    -0.1337     3.9466     3.9466     0.0000
 23 C      6.1716     6.0000    -0.1716     3.9231     3.9231    -0.0000
 24 H      0.8683     1.0000     0.1317     0.9420     0.9420    -0.0000
 25 H      0.8698     1.0000     0.1302     0.9421     0.9421    -0.0000
 26 H      0.8696     1.0000     0.1304     0.9420     0.9420    -0.0000
 27 H      0.8685     1.0000     0.1315     0.9421     0.9421    -0.0000
 28 H      0.8692     1.0000     0.1308     0.9420     0.9420    -0.0000
 29 H      0.8688     1.0000     0.1312     0.9421     0.9421    -0.0000
 30 H      0.8686     1.0000     0.1314     0.9420     0.9420    -0.0000
 31 H      0.8694     1.0000     0.1306     0.9421     0.9421    -0.0000
 32 H      0.8703     1.0000     0.1297     0.9413     0.9413    -0.0000
 33 H      0.8722     1.0000     0.1278     0.9379     0.9379    -0.0000
 34 H      0.8719     1.0000     0.1281     0.9379     0.9379    -0.0000
 35 H      0.8705     1.0000     0.1295     0.9413     0.9413     0.0000
 36 H      0.8695     1.0000     0.1305     0.9414     0.9414     0.0000
 37 H      0.8731     1.0000     0.1269     0.9382     0.9382     0.0000
 38 H      0.8729     1.0000     0.1271     0.9381     0.9381     0.0000
 39 H      0.8696     1.0000     0.1304     0.9414     0.9414     0.0000
 40 H      0.8684     1.0000     0.1316     0.9364     0.9364     0.0000
 41 H      0.8684     1.0000     0.1316     0.9364     0.9364    -0.0000

  Mayer bond orders larger than 0.100000
B(  0-C ,  1-C ) :   1.0131 B(  0-C , 13-C ) :   1.4096 B(  0-C , 23-C ) :   1.4088 
B(  1-C ,  2-C ) :   1.4009 B(  1-C , 12-C ) :   1.4017 B(  2-C ,  3-C ) :   1.4309 
B(  2-C , 24-H ) :   0.9197 B(  3-C ,  4-C ) :   1.4000 B(  3-C , 25-H ) :   0.9197 
B(  4-C ,  5-C ) :   1.0175 B(  4-C , 11-C ) :   1.3993 B(  5-C ,  6-C ) :   1.3999 
B(  5-C , 10-C ) :   1.3992 B(  6-C ,  7-C ) :   1.4311 B(  6-C , 26-H ) :   0.9196 
B(  7-C ,  8-C ) :   1.4009 B(  7-C , 27-H ) :   0.9198 B(  8-C ,  9-C ) :   1.4016 
B(  8-C , 19-C ) :   1.0131 B(  9-C , 10-C ) :   1.4312 B(  9-C , 28-H ) :   0.9197 
B( 10-C , 29-H ) :   0.9196 B( 11-C , 12-C ) :   1.4311 B( 11-C , 30-H ) :   0.9196 
B( 12-C , 31-H ) :   0.9198 B( 13-C , 14-C ) :   1.4434 B( 13-C , 32-H ) :   0.9201 
B( 14-C , 15-C ) :   1.4479 B( 14-C , 33-H ) :   0.9295 B( 15-C , 22-C ) :   1.4479 
B( 15-C , 40-H ) :   0.9296 B( 16-C , 17-C ) :   1.4478 B( 16-C , 21-C ) :   1.4480 
B( 16-C , 41-H ) :   0.9296 B( 17-C , 18-C ) :   1.4433 B( 17-C , 34-H ) :   0.9294 
B( 18-C , 19-C ) :   1.4096 B( 18-C , 35-H ) :   0.9202 B( 19-C , 20-C ) :   1.4089 
B( 20-C , 21-C ) :   1.4436 B( 20-C , 36-H ) :   0.9201 B( 21-C , 37-H ) :   0.9294 
B( 22-C , 23-C ) :   1.4436 B( 22-C , 38-H ) :   0.9294 B( 23-C , 39-H ) :   0.9201 


-------
TIMINGS
-------

Total SCF time: 0 days 0 hours 0 min 8 sec 

Total time                  ....       8.510 sec
Sum of individual times     ....       8.049 sec  ( 94.6%)

Fock matrix formation       ....       6.756 sec  ( 79.4%)
  XC integration            ....       0.363 sec  (  5.4% of F)
    Basis function eval.    ....       0.099 sec  ( 27.2% of XC)
    Density eval.           ....       0.050 sec  ( 13.9% of XC)
    XC-Functional eval.     ....       0.010 sec  (  2.9% of XC)
    XC-Potential eval.      ....       0.068 sec  ( 18.6% of XC)
Diagonalization             ....       0.033 sec  (  0.4%)
Density matrix formation    ....       0.016 sec  (  0.2%)
Population analysis         ....       0.039 sec  (  0.5%)
Initial guess               ....       0.040 sec  (  0.5%)
Orbital Transformation      ....       0.000 sec  (  0.0%)
Orbital Orthonormalization  ....       0.029 sec  (  0.3%)
DIIS solution               ....       0.011 sec  (  0.1%)
SOSCF solution              ....       0.141 sec  (  1.7%)
Grid generation             ....       1.014 sec  ( 11.9%)

-------------------------   --------------------
FINAL SINGLE POINT ENERGY      -924.804951642622
-------------------------   --------------------

                                *** OPTIMIZATION RUN DONE ***

                            ***************************************
                            *     ORCA property calculations      *
                            ***************************************

                                    ---------------------
                                    Active property flags
                                    ---------------------
   (+) Dipole Moment


------------------------------------------------------------------------------
                       ORCA ELECTRIC PROPERTIES CALCULATION
------------------------------------------------------------------------------

Dipole Moment Calculation                       ... on
Quadrupole Moment Calculation                   ... off
Polarizability Calculation                      ... off
GBWName                                         ... dummy2.gbw
Electron density file                           ... dummy2.scfp
The origin for moment calculation is the CENTER OF MASS  = ( 0.132535,  1.207994  0.054671)

-------------
DIPOLE MOMENT
-------------
                                X             Y             Z
Electronic contribution:     -0.00106      -0.00832      -0.00138
Nuclear contribution   :      0.00112       0.00906       0.00287
                        -----------------------------------------
Total Dipole Moment    :      0.00006       0.00074       0.00149
                        -----------------------------------------
Magnitude (a.u.)       :      0.00167
Magnitude (Debye)      :      0.00424



--------------------
Rotational spectrum 
--------------------
 
Rotational constants in cm-1:     0.047742     0.002205     0.002127 
Rotational constants in MHz :  1431.276572    66.091467    63.753601 

 Dipole components along the rotational axes: 
x,y,z [a.u.] :     0.000026     0.001495    -0.000737 
x,y,z [Debye]:     0.000066     0.003799    -0.001873 

 

Timings for individual modules:

Sum of individual times         ...      486.221 sec (=   8.104 min)
GTO integral calculation        ...       25.374 sec (=   0.423 min)   5.2 %
SCF iterations                  ...      333.596 sec (=   5.560 min)  68.6 %
SCF Gradient evaluation         ...      122.247 sec (=   2.037 min)  25.1 %
Geometry relaxation             ...        5.004 sec (=   0.083 min)   1.0 %
                             ****ORCA TERMINATED NORMALLY****
TOTAL RUN TIME: 0 days 0 hours 8 minutes 11 seconds 520 msec
