
                                 *****************
                                 * O   R   C   A *
                                 *****************

           --- An Ab Initio, DFT and Semiempirical electronic structure package ---

                  #######################################################
                  #                        -***-                        #
                  #          Department of theory and spectroscopy      #
                  #               Directorship: Frank Neese             #
                  #        Max Planck Institute fuer Kohlenforschung    #
                  #                Kaiser Wilhelm Platz 1               #
                  #                 D-45470 Muelheim/Ruhr               #
                  #                      Germany                        #
                  #                                                     #
                  #                  All rights reserved                #
                  #                        -***-                        #
                  #######################################################


                         Program Version 4.2.1 -  RELEASE  -


 With contributions from (in alphabetic order):
   Daniel Aravena         : Magnetic Suceptibility
   Michael Atanasov       : Ab Initio Ligand Field Theory (pilot matlab implementation)
   Alexander A. Auer      : GIAO ZORA, VPT2
   Ute Becker             : Parallelization
   Giovanni Bistoni       : ED, misc. LED, open-shell LED, HFLD
   Martin Brehm           : Molecular dynamics
   Dmytro Bykov           : SCF Hessian
   Vijay G. Chilkuri      : MRCI spin determinant printing, contributions to CSF-ICE
   Dipayan Datta          : RHF DLPNO-CCSD density
   Achintya Kumar Dutta   : EOM-CC, STEOM-CC
   Dmitry Ganyushin       : Spin-Orbit,Spin-Spin,Magnetic field MRCI
   Miquel Garcia          : C-PCM Hessian, Gaussian charge scheme
   Yang Guo               : DLPNO-NEVPT2, CIM, IAO-localization
   Andreas Hansen         : Spin unrestricted coupled pair/coupled cluster methods
   Benjamin Helmich-Paris : CASSCF linear response (MC-RPA)
   Lee Huntington         : MR-EOM, pCC
   Robert Izsak           : Overlap fitted RIJCOSX, COSX-SCS-MP3, EOM
   Christian Kollmar      : KDIIS, OOCD, Brueckner-CCSD(T), CCSD density
   Simone Kossmann        : Meta GGA functionals, TD-DFT gradient, OOMP2, MP2 Hessian
   Martin Krupicka        : AUTO-CI
   Lucas Lang             : DCDCAS
   Dagmar Lenk            : GEPOL surface, SMD
   Dimitrios Liakos       : Extrapolation schemes; Compound Job, initial MDCI parallelization
   Dimitrios Manganas     : Further ROCIS development; embedding schemes
   Dimitrios Pantazis     : SARC Basis sets
   Taras Petrenko         : DFT Hessian,TD-DFT gradient, ASA, ECA, R-Raman, ABS, FL, XAS/XES, NRVS
   Peter Pinski           : DLPNO-MP2, DLPNO-MP2 Gradient
   Christoph Reimann      : Effective Core Potentials
   Marius Retegan         : Local ZFS, SOC
   Christoph Riplinger    : Optimizer, TS searches, QM/MM, DLPNO-CCSD(T), (RO)-DLPNO pert. Triples
   Tobias Risthaus        : Range-separated hybrids, TD-DFT gradient, RPA, STAB
   Michael Roemelt        : Original ROCIS implementation
   Masaaki Saitow         : Open-shell DLPNO-CCSD energy and density
   Barbara Sandhoefer     : DKH picture change effects
   Avijit Sen             : IP-ROCIS
   Kantharuban Sivalingam : CASSCF convergence, NEVPT2, FIC-MRCI
   Bernardo de Souza      : ESD, SOC TD-DFT
   Georgi Stoychev        : AutoAux, RI-MP2 NMR
   Willem Van den Heuvel  : Paramagnetic NMR
   Boris Wezisla          : Elementary symmetry handling
   Frank Wennmohs         : Technical directorship


 We gratefully acknowledge several colleagues who have allowed us to
 interface, adapt or use parts of their codes:
   Stefan Grimme, W. Hujo, H. Kruse,             : VdW corrections, initial TS optimization,
                  C. Bannwarth                     DFT functionals, gCP, sTDA/sTD-DF
   Ed Valeev, F. Pavosevic, A. Kumar             : LibInt (2-el integral package), F12 methods
   Garnet Chan, S. Sharma, J. Yang, R. Olivares  : DMRG
   Ulf Ekstrom                                   : XCFun DFT Library
   Mihaly Kallay                                 : mrcc  (arbitrary order and MRCC methods)
   Andreas Klamt, Michael Diedenhofen            : otool_cosmo (COSMO solvation model)
   Jiri Pittner, Ondrej Demel                    : Mk-CCSD
   Frank Weinhold                                : gennbo (NPA and NBO analysis)
   Christopher J. Cramer and Donald G. Truhlar   : smd solvation model
   Lars Goerigk                                  : TD-DFT with DH, B97 family of functionals
   V. Asgeirsson, H. Jonsson                     : NEB implementation
   FAccTs GmbH                                   : IRC, NEB, NEB-TS, Multilevel, MM, QM/MM, CI optimization
   S Lehtola, MJT Oliveira, MAL Marques          : LibXC Library


 Your calculation uses the libint2 library for the computation of 2-el integrals
 For citations please refer to: http://libint.valeyev.net

 Your ORCA version has been built with support for libXC version: 4.2.3
 For citations please refer to: https://tddft.org/programs/libxc/

 This ORCA versions uses:
   CBLAS   interface :  Fast vector & matrix operations
   LAPACKE interface :  Fast linear algebra routines
   SCALAPACK package :  Parallel linear algebra routines


----- Orbital basis set information -----
Your calculation utilizes the basis: 6-31G*
   H-He, Li-Ne : W. J. Hehre, R. Ditchfield and J.A. Pople, J. Chem. Phys. 56, 2257 (1972).
                 Note: He and Ne are unpublished basis sets taken from the Gaussian program.
                 Note: Li and B from J. D. Dill and J. A. Pople, J. Chem. Phys. 62, 2921 (1975).
   Na - Ar     : M. M. Francl, W. J. Pietro, W. J. Hehre, J. S. Binkley, M. S. Gordon, 
                 D. J. DeFrees and J. A. Pople, J. Chem. Phys. 77, 3654 (1982).
   K - Zn      : V. A. Rassolov, J. A. Pople, M. A. Ratner, and T. L. Windus, J. Chem. Phys. 109, 1223 (1998).

================================================================================
                                        WARNINGS
                       Please study these warnings very carefully!
================================================================================


WARNING: Geometry Optimization
  ===> : Switching off AutoStart
         For restart on a previous wavefunction, please use MOREAD

INFO   : the flag for use of LIBINT has been found!

================================================================================
                                       INPUT FILE
================================================================================
NAME = test_dummy_protonopt.inp
|  1> ! B3LYP OPT 6-31G*
|  2> %pal
|  3> 	nprocs 1
|  4> end
|  5> %geom
|  6> 	Constraints
|  7> 		{ C 0 C }
|  8> 		{ C 1 C }
|  9> 		{ C 2 C }
| 10> 		{ C 3 C }
| 11> 		{ C 4 C }
| 12> 		{ C 5 C }
| 13> 		{ C 6 C }
| 14> 		{ C 7 C }
| 15> 		{ C 8 C }
| 16> 		{ C 9 C }
| 17> 		{ C 10 C }
| 18> 		{ C 11 C }
| 19> 		{ C 12 C }
| 20> 		{ C 13 C }
| 21> 		{ C 14 C }
| 22> 		{ C 15 C }
| 23> 		{ C 16 C }
| 24> 		{ C 17 C }
| 25> 		{ C 18 C }
| 26> 		{ C 19 C }
| 27> 	end
| 28> end
| 29> * xyz 0 1
| 30> 	C	-3.452440	0.712200	0.112300
| 31> 	C	-3.146900	0.051140	1.317720
| 32> 	C	-2.852670	-1.307900	1.334290
| 33> 	C	-2.850710	-2.064690	0.146350
| 34> 	C	-1.750560	-3.060350	-0.028940
| 35> 	C	-1.025270	-3.587410	1.061510
| 36> 	C	0.359930	-3.723820	0.999750
| 37> 	C	1.078790	-3.341450	-0.154950
| 38> 	C	0.306000	-3.214710	-1.327120
| 39> 	C	-1.075390	-3.072660	-1.265180
| 40> 	C	-3.530490	-1.484270	-0.947070
| 41> 	C	-3.824850	-0.121940	-0.964160
| 42> 	H	-2.915890	0.629970	2.206500
| 43> 	H	-2.408990	-1.717030	2.236330
| 44> 	H	-1.518110	-3.748470	2.016950
| 45> 	H	0.889060	-3.984550	1.912210
| 46> 	H	0.786250	-3.012770	-2.278630
| 47> 	H	-1.591470	-2.756600	-2.166300
| 48> 	H	-3.697240	-2.061540	-1.853050
| 49> 	H	-4.208860	0.314830	-1.882820
| 50> 	H	-3.407080	1.739220	0.021770
| 51> 	H	2.095940	-3.167540	-0.141240
| 52> 
| 53> **                         ****END OF INPUT****
================================================================================

                       *****************************
                       * Geometry Optimization Run *
                       *****************************

Geometry optimization settings:
Update method            Update   .... BFGS
Choice of coordinates    CoordSys .... Z-matrix Internals
Initial Hessian          InHess   .... Almoef's Model

Convergence Tolerances:
Energy Change            TolE     ....  5.0000e-06 Eh
Max. Gradient            TolMAXG  ....  3.0000e-04 Eh/bohr
RMS Gradient             TolRMSG  ....  1.0000e-04 Eh/bohr
Max. Displacement        TolMAXD  ....  4.0000e-03 bohr
RMS Displacement         TolRMSD  ....  2.0000e-03 bohr
Strict Convergence                ....  False
------------------------------------------------------------------------------
                        ORCA OPTIMIZATION COORDINATE SETUP
------------------------------------------------------------------------------

The optimization will be done in new redundant internal coordinates
Making redundant internal coordinates   ...  (new redundants) done
Evaluating the initial hessian          ...  (Almloef) done
Evaluating the coordinates              ...  done
Calculating the B-matrix                .... done
Calculating the G-matrix                .... done
Diagonalizing the G-matrix              .... done
Imposing constraints:
 Iter   0:  RMS(Cart)=    0.0000000000 RMS(Int)=    0.0000000000
CONVERGED
Will constrain atom 0 coordinate 1 
Will constrain atom 0 coordinate 2 
Will constrain atom 0 coordinate 3 
Will constrain atom 1 coordinate 1 
Will constrain atom 1 coordinate 2 
Will constrain atom 1 coordinate 3 
Will constrain atom 2 coordinate 1 
Will constrain atom 2 coordinate 2 
Will constrain atom 2 coordinate 3 
Will constrain atom 3 coordinate 1 
Will constrain atom 3 coordinate 2 
Will constrain atom 3 coordinate 3 
Will constrain atom 4 coordinate 1 
Will constrain atom 4 coordinate 2 
Will constrain atom 4 coordinate 3 
Will constrain atom 5 coordinate 1 
Will constrain atom 5 coordinate 2 
Will constrain atom 5 coordinate 3 
Will constrain atom 6 coordinate 1 
Will constrain atom 6 coordinate 2 
Will constrain atom 6 coordinate 3 
Will constrain atom 7 coordinate 1 
Will constrain atom 7 coordinate 2 
Will constrain atom 7 coordinate 3 
Will constrain atom 8 coordinate 1 
Will constrain atom 8 coordinate 2 
Will constrain atom 8 coordinate 3 
Will constrain atom 9 coordinate 1 
Will constrain atom 9 coordinate 2 
Will constrain atom 9 coordinate 3 
Will constrain atom 10 coordinate 1 
Will constrain atom 10 coordinate 2 
Will constrain atom 10 coordinate 3 
Will constrain atom 11 coordinate 1 
Will constrain atom 11 coordinate 2 
Will constrain atom 11 coordinate 3 
Will constrain atom 12 coordinate 1 
Will constrain atom 12 coordinate 2 
Will constrain atom 12 coordinate 3 
Will constrain atom 13 coordinate 1 
Will constrain atom 13 coordinate 2 
Will constrain atom 13 coordinate 3 
Will constrain atom 14 coordinate 1 
Will constrain atom 14 coordinate 2 
Will constrain atom 14 coordinate 3 
Will constrain atom 15 coordinate 1 
Will constrain atom 15 coordinate 2 
Will constrain atom 15 coordinate 3 
Will constrain atom 16 coordinate 1 
Will constrain atom 16 coordinate 2 
Will constrain atom 16 coordinate 3 
Will constrain atom 17 coordinate 1 
Will constrain atom 17 coordinate 2 
Will constrain atom 17 coordinate 3 
Will constrain atom 18 coordinate 1 
Will constrain atom 18 coordinate 2 
Will constrain atom 18 coordinate 3 
Will constrain atom 19 coordinate 1 
Will constrain atom 19 coordinate 2 
Will constrain atom 19 coordinate 3 
The first mode is                       ....  105
The number of degrees of freedom        ....   66
Storing new coordinates                 .... done

    -----------------------------------------------------------------
                    Redundant Internal Coordinates


    -----------------------------------------------------------------
         Definition                    Initial Value    Approx d2E/dq
    -----------------------------------------------------------------
      1. B(C   1,C   0)                  1.4083         0.584110   
      2. B(C   2,C   1)                  1.3906         0.623365   
      3. B(C   3,C   2)                  1.4085         0.583696   
      4. B(C   4,C   3)                  1.4941         0.426208   
      5. B(C   5,C   4)                  1.4117         0.576906   
      6. B(C   6,C   5)                  1.3933         0.617336   
      7. B(C   7,C   6)                  1.4129         0.574376   
      8. B(C   8,C   7)                  1.4097         0.581180   
      9. B(C   9,C   4)                  1.4087         0.583423   
     10. B(C   9,C   8)                  1.3901         0.624670   
     11. B(C  10,C   3)                  1.4123         0.575679   
     12. B(C  11,C   0)                  1.4118         0.576661   
     13. B(C  11,C  10)                  1.3939         0.615969   
     14. B(H  12,C   1)                  1.0855         0.366084   
     15. B(H  13,C   2)                  1.0853         0.366347   
     16. B(H  14,C   5)                  1.0871         0.364012   
     17. B(H  15,C   6)                  1.0865         0.364723   
     18. B(H  16,C   8)                  1.0848         0.367045   
     19. B(H  17,C   9)                  1.0855         0.366140   
     20. B(H  18,C  10)                  1.0871         0.363920   
     21. B(H  19,C  11)                  1.0873         0.363722   
     22. B(H  20,C   0)                  1.0320         0.445614   
     23. B(H  21,C   7)                  1.0320         0.445611   
     24. A(C  11,C   0,H  20)          122.1869         0.361443   
     25. A(C   1,C   0,H  20)          122.1864         0.362235   
     26. A(C   1,C   0,C  11)          115.6267         0.423902   
     27. A(C   0,C   1,H  12)          119.7801         0.350344   
     28. A(C   0,C   1,C   2)          120.9863         0.429858   
     29. A(C   2,C   1,H  12)          117.7968         0.354220   
     30. A(C   1,C   2,C   3)          121.0199         0.429803   
     31. A(C   1,C   2,H  13)          117.6975         0.354263   
     32. A(C   3,C   2,H  13)          119.8584         0.350345   
     33. A(C   2,C   3,C  10)          115.5619         0.423719   
     34. A(C   4,C   3,C  10)          122.5105         0.400724   
     35. A(C   2,C   3,C   4)          117.2592         0.401702   
     36. A(C   3,C   4,C   5)          122.4437         0.400874   
     37. A(C   3,C   4,C   9)          117.4971         0.401668   
     38. A(C   5,C   4,C   9)          115.3647         0.423845   
     39. A(C   4,C   5,H  14)          120.0859         0.349276   
     40. A(C   6,C   5,H  14)          118.3723         0.353297   
     41. A(C   4,C   5,C   6)          120.8709         0.428155   
     42. A(C   5,C   6,H  15)          118.0628         0.353414   
     43. A(C   7,C   6,H  15)          120.2314         0.349133   
     44. A(C   5,C   6,C   7)          121.0353         0.427817   
     45. A(C   6,C   7,H  21)          122.4259         0.361198   
     46. A(C   8,C   7,H  21)          122.4255         0.361924   
     47. A(C   6,C   7,C   8)          115.1486         0.423220   
     48. A(C   7,C   8,C   9)          121.1255         0.429631   
     49. A(C   7,C   8,H  16)          120.2240         0.350202   
     50. A(C   9,C   8,H  16)          117.3877         0.354503   
     51. A(C   4,C   9,C   8)          121.0853         0.429928   
     52. A(C   4,C   9,H  17)          119.8765         0.350283   
     53. A(C   8,C   9,H  17)          117.7259         0.354355   
     54. A(C   3,C  10,C  11)          120.8518         0.427821   
     55. A(C   3,C  10,H  18)          120.0536         0.349136   
     56. A(C  11,C  10,H  18)          118.4491         0.353150   
     57. A(C   0,C  11,C  10)          120.8239         0.427952   
     58. A(C  10,C  11,H  19)          118.5265         0.353117   
     59. A(C   0,C  11,H  19)          120.0027         0.349205   
     60. D(H  12,C   1,C   0,C  11)   -175.9898         0.023456   
     61. D(H  12,C   1,C   0,H  20)      4.0100         0.023456   
     62. D(C   2,C   1,C   0,C  11)     17.9880         0.023456   
     63. D(C   2,C   1,C   0,H  20)   -162.0121         0.023456   
     64. D(C   3,C   2,C   1,C   0)      0.0235         0.026907   
     65. D(H  13,C   2,C   1,H  12)      0.0927         0.026907   
     66. D(C   3,C   2,C   1,H  12)   -166.2672         0.026907   
     67. D(H  13,C   2,C   1,C   0)    166.3835         0.026907   
     68. D(C   4,C   3,C   2,H  13)    -27.6768         0.023421   
     69. D(C   4,C   3,C   2,C   1)    138.3919         0.023421   
     70. D(C  10,C   3,C   2,H  13)    175.8841         0.023421   
     71. D(C  10,C   3,C   2,C   1)    -18.0472         0.023421   
     72. D(C   5,C   4,C   3,C   2)     21.9400         0.012419   
     73. D(C   5,C   4,C   3,C  10)    176.6242         0.012419   
     74. D(C   9,C   4,C   3,C   2)   -132.6326         0.012419   
     75. D(C   9,C   4,C   3,C  10)     22.0516         0.012419   
     76. D(C   6,C   5,C   4,C   3)   -136.7075         0.022855   
     77. D(C   6,C   5,C   4,C   9)     18.3634         0.022855   
     78. D(H  14,C   5,C   4,C   3)     33.7527         0.022855   
     79. D(H  14,C   5,C   4,C   9)   -171.1764         0.022855   
     80. D(C   7,C   6,C   5,C   4)     -0.1055         0.026358   
     81. D(C   7,C   6,C   5,H  14)   -170.7254         0.026358   
     82. D(H  15,C   6,C   5,C   4)    170.5301         0.026358   
     83. D(H  15,C   6,C   5,H  14)     -0.0899         0.026358   
     84. D(C   8,C   7,C   6,C   5)    -18.3793         0.022646   
     85. D(C   8,C   7,C   6,H  15)    171.1868         0.022646   
     86. D(H  21,C   7,C   6,C   5)    161.6208         0.022646   
     87. D(H  21,C   7,C   6,H  15)     -8.8130         0.022646   
     88. D(C   9,C   8,C   7,C   6)     18.6867         0.023210   
     89. D(C   9,C   8,C   7,H  21)   -161.3134         0.023210   
     90. D(H  16,C   8,C   7,C   6)   -174.4835         0.023210   
     91. D(H  16,C   8,C   7,H  21)      5.5163         0.023210   
     92. D(C   8,C   9,C   4,C   3)    138.2415         0.023398   
     93. D(H  17,C   9,C   8,C   7)    166.4337         0.027027   
     94. D(H  17,C   9,C   4,C   3)    -28.3804         0.023398   
     95. D(H  17,C   9,C   4,C   5)    175.2610         0.023398   
     96. D(C   4,C   9,C   8,C   7)     -0.4663         0.027027   
     97. D(C   8,C   9,C   4,C   5)    -18.1172         0.023398   
     98. D(C   4,C   9,C   8,H  16)   -167.6559         0.027027   
     99. D(H  17,C   9,C   8,H  16)     -0.7559         0.027027   
    100. D(C  11,C  10,C   3,C   2)     18.0477         0.022753   
    101. D(C  11,C  10,C   3,C   4)   -137.0317         0.022753   
    102. D(H  18,C  10,C   3,C   2)   -171.3037         0.022753   
    103. D(H  18,C  10,C   3,C   4)     33.6169         0.022753   
    104. D(C  10,C  11,C   0,C   1)    -17.9232         0.022835   
    105. D(C  10,C  11,C   0,H  20)    162.0769         0.022835   
    106. D(H  19,C  11,C   0,C   1)    171.4313         0.022835   
    107. D(H  19,C  11,C   0,H  20)     -8.5686         0.022835   
    108. D(C   0,C  11,C  10,C   3)     -0.0879         0.026234   
    109. D(C   0,C  11,C  10,H  18)   -170.8834         0.026234   
    110. D(H  19,C  11,C  10,C   3)    170.6928         0.026234   
    111. D(H  19,C  11,C  10,H  18)     -0.1026         0.026234   
    112. C_2(C   0)                      0.1123         1.000000 C 
    113. C_0(C   0)                     -3.4524         1.000000 C 
    114. C_1(C   0)                      0.7122         1.000000 C 
    115. C_2(C   1)                      1.3177         1.000000 C 
    116. C_1(C   1)                      0.0511         1.000000 C 
    117. C_0(C   1)                     -3.1469         1.000000 C 
    118. C_2(C   2)                      1.3343         1.000000 C 
    119. C_1(C   2)                     -1.3079         1.000000 C 
    120. C_0(C   2)                     -2.8527         1.000000 C 
    121. C_1(C   3)                     -2.0647         1.000000 C 
    122. C_0(C   3)                     -2.8507         1.000000 C 
    123. C_2(C   3)                      0.1464         1.000000 C 
    124. C_0(C   4)                     -1.7506         1.000000 C 
    125. C_2(C   4)                     -0.0289         1.000000 C 
    126. C_1(C   4)                     -3.0604         1.000000 C 
    127. C_2(C   5)                      1.0615         1.000000 C 
    128. C_1(C   5)                     -3.5874         1.000000 C 
    129. C_0(C   5)                     -1.0253         1.000000 C 
    130. C_2(C   6)                      0.9997         1.000000 C 
    131. C_1(C   6)                     -3.7238         1.000000 C 
    132. C_0(C   6)                      0.3599         1.000000 C 
    133. C_2(C   7)                     -0.1550         1.000000 C 
    134. C_1(C   7)                     -3.3415         1.000000 C 
    135. C_0(C   7)                      1.0788         1.000000 C 
    136. C_2(C   8)                     -1.3271         1.000000 C 
    137. C_1(C   8)                     -3.2147         1.000000 C 
    138. C_0(C   8)                      0.3060         1.000000 C 
    139. C_2(C   9)                     -1.2652         1.000000 C 
    140. C_1(C   9)                     -3.0727         1.000000 C 
    141. C_0(C   9)                     -1.0754         1.000000 C 
    142. C_2(C  10)                     -0.9471         1.000000 C 
    143. C_1(C  10)                     -1.4843         1.000000 C 
    144. C_0(C  10)                     -3.5305         1.000000 C 
    145. C_0(C  11)                     -3.8249         1.000000 C 
    146. C_2(C  11)                     -0.9642         1.000000 C 
    147. C_1(C  11)                     -0.1219         1.000000 C 
    148. C_2(H  12)                      2.2065         1.000000 C 
    149. C_1(H  12)                      0.6300         1.000000 C 
    150. C_0(H  12)                     -2.9159         1.000000 C 
    151. C_2(H  13)                      2.2363         1.000000 C 
    152. C_1(H  13)                     -1.7170         1.000000 C 
    153. C_0(H  13)                     -2.4090         1.000000 C 
    154. C_2(H  14)                      2.0170         1.000000 C 
    155. C_1(H  14)                     -3.7485         1.000000 C 
    156. C_0(H  14)                     -1.5181         1.000000 C 
    157. C_2(H  15)                      1.9122         1.000000 C 
    158. C_1(H  15)                     -3.9846         1.000000 C 
    159. C_0(H  15)                      0.8891         1.000000 C 
    160. C_2(H  16)                     -2.2786         1.000000 C 
    161. C_1(H  16)                     -3.0128         1.000000 C 
    162. C_0(H  16)                      0.7863         1.000000 C 
    163. C_2(H  17)                     -2.1663         1.000000 C 
    164. C_1(H  17)                     -2.7566         1.000000 C 
    165. C_0(H  17)                     -1.5915         1.000000 C 
    166. C_2(H  18)                     -1.8531         1.000000 C 
    167. C_1(H  18)                     -2.0615         1.000000 C 
    168. C_0(H  18)                     -3.6972         1.000000 C 
    169. C_2(H  19)                     -1.8828         1.000000 C 
    170. C_1(H  19)                      0.3148         1.000000 C 
    171. C_0(H  19)                     -4.2089         1.000000 C 
    -----------------------------------------------------------------

Number of atoms                         .... 22
Number of degrees of freedom            .... 171

         *************************************************************
         *                GEOMETRY OPTIMIZATION CYCLE   1            *
         *************************************************************
---------------------------------
CARTESIAN COORDINATES (ANGSTROEM)
---------------------------------
  C     -3.452440    0.712200    0.112300
  C     -3.146900    0.051140    1.317720
  C     -2.852670   -1.307900    1.334290
  C     -2.850710   -2.064690    0.146350
  C     -1.750560   -3.060350   -0.028940
  C     -1.025270   -3.587410    1.061510
  C      0.359930   -3.723820    0.999750
  C      1.078790   -3.341450   -0.154950
  C      0.306000   -3.214710   -1.327120
  C     -1.075390   -3.072660   -1.265180
  C     -3.530490   -1.484270   -0.947070
  C     -3.824850   -0.121940   -0.964160
  H     -2.915890    0.629970    2.206500
  H     -2.408990   -1.717030    2.236330
  H     -1.518110   -3.748470    2.016950
  H      0.889060   -3.984550    1.912210
  H      0.786250   -3.012770   -2.278630
  H     -1.591470   -2.756600   -2.166300
  H     -3.697240   -2.061540   -1.853050
  H     -4.208860    0.314830   -1.882820
  H     -3.407080    1.739220    0.021770
  H      2.095940   -3.167540   -0.141240

----------------------------
CARTESIAN COORDINATES (A.U.)
----------------------------
  NO LB      ZA    FRAG     MASS         X           Y           Z
   0 C     6.0000    0    12.011   -6.524166    1.345863    0.212216
   1 C     6.0000    0    12.011   -5.946779    0.096641    2.490130
   2 C     6.0000    0    12.011   -5.390765   -2.471573    2.521443
   3 C     6.0000    0    12.011   -5.387061   -3.901699    0.276561
   4 C     6.0000    0    12.011   -3.308079   -5.783223   -0.054689
   5 C     6.0000    0    12.011   -1.937480   -6.779222    2.005963
   6 C     6.0000    0    12.011    0.680169   -7.037000    1.889254
   7 C     6.0000    0    12.011    2.038618   -6.314425   -0.292813
   8 C     6.0000    0    12.011    0.578256   -6.074921   -2.507893
   9 C     6.0000    0    12.011   -2.032193   -5.806486   -2.390844
  10 C     6.0000    0    12.011   -6.671659   -2.804864   -1.789703
  11 C     6.0000    0    12.011   -7.227919   -0.230433   -1.821998
  12 H     1.0000    0     1.008   -5.510234    1.190471    4.169681
  13 H     1.0000    0     1.008   -4.552331   -3.244716    4.226051
  14 H     1.0000    0     1.008   -2.868812   -7.083582    3.811483
  15 H     1.0000    0     1.008    1.680080   -7.529708    3.613553
  16 H     1.0000    0     1.008    1.485797   -5.693310   -4.305987
  17 H     1.0000    0     1.008   -3.007442   -5.209219   -4.093714
  18 H     1.0000    0     1.008   -6.986771   -3.895746   -3.501757
  19 H     1.0000    0     1.008   -7.953593    0.594942   -3.558014
  20 H     1.0000    0     1.008   -6.438448    3.286649    0.041139
  21 H     1.0000    0     1.008    3.960753   -5.985783   -0.266905

--------------------------------
INTERNAL COORDINATES (ANGSTROEM)
--------------------------------
 C      0   0   0     0.000000000000     0.00000000     0.00000000
 C      1   0   0     1.408329645928     0.00000000     0.00000000
 C      2   1   0     1.390624168998   120.98634117     0.00000000
 C      3   2   1     1.408522768471   121.01986464     0.02353366
 C      4   3   2     1.494120290405   117.25915859   138.39187999
 C      5   4   3     1.411707841658   122.44365650    21.93998615
 C      6   5   4     1.393269904110   120.87089659   223.29247592
 C      7   6   5     1.412904316116   121.03525948   359.89454711
 C      8   7   6     1.409698521174   115.14864785   341.62065206
 C      9   8   7     1.390055070204   121.12548647    18.68673622
 C      4   3   2     1.412287336628   115.56190921   341.95278085
 C     11   4   3     1.393873346685   120.85180166    18.04769644
 H      2   1   3     1.085513554683   119.78014562   166.02219113
 H      3   2   1     1.085318138105   117.69754836   166.38345461
 H      6   5   4     1.087058960130   120.08587577    33.75267165
 H      7   6   5     1.086527469234   118.06282786   170.53005623
 H      9   8   7     1.084800030513   120.22402909   185.51645100
 H     10   9   8     1.085472129721   117.72592139   166.43370812
 H     11   4   3     1.087127396306   120.05356758   188.69630624
 H     12  11   4     1.087275452036   118.52651487   170.69283044
 H      1   2   3     1.031999656444   122.18644989   197.98785635
 H      8   7   6     1.032001344331   122.42588720   161.62081413

---------------------------
INTERNAL COORDINATES (A.U.)
---------------------------
 C      0   0   0     0.000000000000     0.00000000     0.00000000
 C      1   0   0     2.661357337086     0.00000000     0.00000000
 C      2   1   0     2.627898834617   120.98634117     0.00000000
 C      3   2   1     2.661722285802   121.01986464     0.02353366
 C      4   3   2     2.823478160000   117.25915859   138.39187999
 C      5   4   3     2.667741201844   122.44365650    21.93998615
 C      6   5   4     2.632898549404   120.87089659   223.29247592
 C      7   6   5     2.670002210895   121.03525948   359.89454711
 C      8   7   6     2.663944136413   115.14864785   341.62065206
 C      9   8   7     2.626823393754   121.12548647    18.68673622
 C      4   3   2     2.668836288632   115.56190921   341.95278085
 C     11   4   3     2.634038890608   120.85180166    18.04769644
 H      2   1   3     2.051323333010   119.78014562   166.02219113
 H      3   2   1     2.050954049196   117.69754836   166.38345461
 H      6   5   4     2.054243726072   120.08587577    33.75267165
 H      7   6   5     2.053239353835   118.06282786   170.53005623
 H      9   8   7     2.049974967738   120.22402909   185.51645100
 H     10   9   8     2.051245051176   117.72592139   166.43370812
 H     11   4   3     2.054373051702   120.05356758   188.69630624
 H     12  11   4     2.054652836483   118.52651487   170.69283044
 H      1   2   3     1.950196720979   122.18644989   197.98785635
 H      8   7   6     1.950199910623   122.42588720   161.62081413

---------------------
BASIS SET INFORMATION
---------------------
There are 2 groups of distinct atoms

 Group   1 Type C   : 10s4p1d contracted to 3s2p1d pattern {631/31/1}
 Group   2 Type H   : 4s contracted to 2s pattern {31}

Atom   0C    basis set group =>   1
Atom   1C    basis set group =>   1
Atom   2C    basis set group =>   1
Atom   3C    basis set group =>   1
Atom   4C    basis set group =>   1
Atom   5C    basis set group =>   1
Atom   6C    basis set group =>   1
Atom   7C    basis set group =>   1
Atom   8C    basis set group =>   1
Atom   9C    basis set group =>   1
Atom  10C    basis set group =>   1
Atom  11C    basis set group =>   1
Atom  12H    basis set group =>   2
Atom  13H    basis set group =>   2
Atom  14H    basis set group =>   2
Atom  15H    basis set group =>   2
Atom  16H    basis set group =>   2
Atom  17H    basis set group =>   2
Atom  18H    basis set group =>   2
Atom  19H    basis set group =>   2
Atom  20H    basis set group =>   2
Atom  21H    basis set group =>   2
------------------------------------------------------------------------------
                           ORCA GTO INTEGRAL CALCULATION
------------------------------------------------------------------------------

                         BASIS SET STATISTICS AND STARTUP INFO

 # of primitive gaussian shells          ...  220
 # of primitive gaussian functions       ...  364
 # of contracted shells                  ...   92
 # of contracted basis functions         ...  188
 Highest angular momentum                ...    2
 Maximum contraction depth               ...    6
 Integral package used                   ... LIBINT
 Integral threshhold            Thresh   ...  2.500e-11
 Primitive cut-off              TCut     ...  2.500e-12


------------------------------ INTEGRAL EVALUATION ----------------------------


 * One electron integrals 
 Pre-screening matrix                    ... done
 Shell pair data                         ... done (   0.001 sec)

-------------------------------------------------------------------------------
                                 ORCA SCF
-------------------------------------------------------------------------------

------------
SCF SETTINGS
------------
Hamiltonian:
 Density Functional     Method          .... DFT(GTOs)
 Exchange Functional    Exchange        .... B88
   X-Alpha parameter    XAlpha          ....  0.666667
   Becke's b parameter  XBeta           ....  0.004200
 Correlation Functional Correlation     .... LYP
 LDA part of GGA corr.  LDAOpt          .... VWN-5
 Gradients option       PostSCFGGA      .... off
 Hybrid DFT is turned on
   Fraction HF Exchange ScalHFX         ....  0.200000
   Scaling of DF-GGA-X  ScalDFX         ....  0.720000
   Scaling of DF-GGA-C  ScalDFC         ....  0.810000
   Scaling of DF-LDA-C  ScalLDAC        ....  1.000000
   Perturbative correction              ....  0.000000
   Density functional embedding theory  .... OFF
   NL short-range parameter             ....  4.800000


General Settings:
 Integral files         IntName         .... test_dummy_protonopt
 Hartree-Fock type      HFTyp           .... RHF
 Total Charge           Charge          ....    0
 Multiplicity           Mult            ....    1
 Number of Electrons    NEL             ....   82
 Basis Dimension        Dim             ....  188
 Nuclear Repulsion      ENuc            ....    608.0986108718 Eh

Convergence Acceleration:
 DIIS                   CNVDIIS         .... on
   Start iteration      DIISMaxIt       ....    12
   Startup error        DIISStart       ....  0.200000
   # of expansion vecs  DIISMaxEq       ....     5
   Bias factor          DIISBfac        ....   1.050
   Max. coefficient     DIISMaxC        ....  10.000
 Newton-Raphson         CNVNR           .... off
 SOSCF                  CNVSOSCF        .... on
   Start iteration      SOSCFMaxIt      ....   150
   Startup grad/error   SOSCFStart      ....  0.003300
 Level Shifting         CNVShift        .... on
   Level shift para.    LevelShift      ....    0.2500
   Turn off err/grad.   ShiftErr        ....    0.0010
 Zerner damping         CNVZerner       .... off
 Static damping         CNVDamp         .... on
   Fraction old density DampFac         ....    0.7000
   Max. Damping (<1)    DampMax         ....    0.9800
   Min. Damping (>=0)   DampMin         ....    0.0000
   Turn off err/grad.   DampErr         ....    0.1000
 Fernandez-Rico         CNVRico         .... off

SCF Procedure:
 Maximum # iterations   MaxIter         ....   125
 SCF integral mode      SCFMode         .... Direct
   Integral package                     .... LIBINT
 Reset frequency        DirectResetFreq ....    20
 Integral Threshold     Thresh          ....  2.500e-11 Eh
 Primitive CutOff       TCut            ....  2.500e-12 Eh

Convergence Tolerance:
 Convergence Check Mode ConvCheckMode   .... Total+1el-Energy
 Convergence forced     ConvForced      .... 0
 Energy Change          TolE            ....  1.000e-08 Eh
 1-El. energy change                    ....  1.000e-05 Eh
 Orbital Gradient       TolG            ....  1.000e-05
 Orbital Rotation angle TolX            ....  1.000e-05
 DIIS Error             TolErr          ....  5.000e-07


Diagonalization of the overlap matrix:
Smallest eigenvalue                        ... 5.796e-04
Time for diagonalization                   ...    0.229 sec
Threshold for overlap eigenvalues          ... 1.000e-08
Number of eigenvalues below threshold      ... 0
Time for construction of square roots      ...    0.002 sec
Total time needed                          ...    0.231 sec

-------------------
DFT GRID GENERATION
-------------------

General Integration Accuracy     IntAcc      ...  4.340
Radial Grid Type                 RadialGrid  ... Gauss-Chebyshev
Angular Grid (max. acc.)         AngularGrid ... Lebedev-110
Angular grid pruning method      GridPruning ... 3 (G Style)
Weight generation scheme         WeightScheme... Becke
Basis function cutoff            BFCut       ...    1.0000e-11
Integration weight cutoff        WCut        ...    1.0000e-14
Grids for H and He will be reduced by one unit

# of grid points (after initial pruning)     ...  27812 (   0.0 sec)
# of grid points (after weights+screening)   ...  25337 (   0.1 sec)
nearest neighbour list constructed           ...    0.0 sec
Grid point re-assignment to atoms done       ...    0.0 sec
Grid point division into batches done        ...    0.0 sec
Reduced shell lists constructed in    0.2 sec

Total number of grid points                  ...    25337
Total number of batches                      ...      407
Average number of points per batch           ...       62
Average number of grid points per atom       ...     1152
Average number of shells per batch           ...    59.47 (64.64%)
Average number of basis functions per batch  ...   122.96 (65.40%)
Average number of large shells per batch     ...    43.34 (72.88%)
Average number of large basis fcns per batch ...    90.77 (73.82%)
Maximum spatial batch extension              ...  25.60, 20.31, 20.07 au
Average spatial batch extension              ...   3.85,  3.78,  3.76 au

Time for grid setup =    0.295 sec

------------------------------
INITIAL GUESS: MODEL POTENTIAL
------------------------------
Loading Hartree-Fock densities                     ... done
Calculating cut-offs                               ... done
Setting up the integral package                    ... done
Initializing the effective Hamiltonian             ... done
Starting the Coulomb interaction                   ... done (   0.2 sec)
Reading the grid                                   ... done
Mapping shells                                     ... done
Starting the XC term evaluation                    ... done (   0.3 sec)
  promolecular density results
     # of electrons  =     82.000643542
     EX              =    -64.646669329
     EC              =     -2.726443974
     EX+EC           =    -67.373113303
Transforming the Hamiltonian                       ... done (   0.0 sec)
Diagonalizing the Hamiltonian                      ... done (   0.0 sec)
Back transforming the eigenvectors                 ... done (   0.0 sec)
Now organizing SCF variables                       ... done
                      ------------------
                      INITIAL GUESS DONE (   0.8 sec)
                      ------------------
--------------
SCF ITERATIONS
--------------
ITER       Energy         Delta-E        Max-DP      RMS-DP      [F,P]     Damp
               ***  Starting incremental Fock matrix formation  ***
  0   -462.6849898990   0.000000000000 0.04147497  0.00194015  0.1103959 0.7000
  1   -462.7951452992  -0.110155400240 0.03068778  0.00145545  0.0628886 0.7000
                               ***Turning on DIIS***
  2   -462.8455552308  -0.050409931632 0.05557739  0.00253983  0.0285933 0.0000
  3   -462.9179188100  -0.072363579211 0.02320250  0.00104218  0.0360414 0.0000
  4   -462.9353937387  -0.017474928686 0.00933148  0.00030593  0.0072044 0.0000
                      *** Initiating the SOSCF procedure ***
                           *** Shutting down DIIS ***
                      *** Re-Reading the Fockian *** 
                      *** Removing any level shift *** 
ITER      Energy       Delta-E        Grad      Rot      Max-DP    RMS-DP
  5   -462.93626960  -0.0008758600  0.000815  0.000815  0.002816  0.000097
               *** Restarting incremental Fock matrix formation ***
  6   -462.93631148  -0.0000418801  0.000434  0.001946  0.001481  0.000060
  7   -462.93630082   0.0000106596  0.000987  0.001408  0.000967  0.000033
  8   -462.93631670  -0.0000158850  0.000047  0.000143  0.000231  0.000009
  9   -462.93631663   0.0000000730  0.000066  0.000083  0.000139  0.000004
 10   -462.93631685  -0.0000002227  0.000009  0.000022  0.000037  0.000001
 11   -462.93631685   0.0000000008  0.000012  0.000014  0.000019  0.000001
                  ***Gradient check signals convergence***
              ***Rediagonalizing the Fockian in SOSCF/NRSCF***

               *****************************************************
               *                     SUCCESS                       *
               *           SCF CONVERGED AFTER  12 CYCLES          *
               *****************************************************

Setting up the final grid:

General Integration Accuracy     IntAcc      ...  4.670
Radial Grid Type                 RadialGrid  ... Gauss-Chebyshev
Angular Grid (max. acc.)         AngularGrid ... Lebedev-302
Angular grid pruning method      GridPruning ... 3 (G Style)
Weight generation scheme         WeightScheme... Becke
Basis function cutoff            BFCut       ...    1.0000e-11
Integration weight cutoff        WCut        ...    1.0000e-14
Grids for H and He will be reduced by one unit

# of grid points (after initial pruning)     ... 108484 (   0.0 sec)
# of grid points (after weights+screening)   ...  97067 (   0.3 sec)
nearest neighbour list constructed           ...    0.0 sec
Grid point re-assignment to atoms done       ...    0.0 sec
Grid point division into batches done        ...    0.3 sec
Reduced shell lists constructed in    1.0 sec

Total number of grid points                  ...    97067
Total number of batches                      ...     1529
Average number of points per batch           ...       63
Average number of grid points per atom       ...     4412
Average number of shells per batch           ...    54.00 (58.69%)
Average number of basis functions per batch  ...   111.28 (59.19%)
Average number of large shells per batch     ...    38.49 (71.28%)
Average number of large basis fcns per batch ...    80.34 (72.19%)
Maximum spatial batch extension              ...  22.01, 22.92, 19.42 au
Average spatial batch extension              ...   2.46,  2.45,  2.42 au

Final grid set up in    1.3 sec
Final integration                            ... done (   1.0 sec)
Change in XC energy                          ...    -0.000223077
Integrated number of electrons               ...    82.000060848
Previous integrated no of electrons          ...    82.001847824

----------------
TOTAL SCF ENERGY
----------------

Total Energy       :         -462.93653993 Eh          -12597.14368 eV

Components:
Nuclear Repulsion  :          608.09861087 Eh           16547.20445 eV
Electronic Energy  :        -1071.03515081 Eh          -29144.34812 eV
One Electron Energy:        -1829.73082064 Eh          -49789.50688 eV
Two Electron Energy:          758.69566983 Eh           20645.15876 eV

Virial components:
Potential Energy   :         -923.22447996 Eh          -25122.21529 eV
Kinetic Energy     :          460.28794002 Eh           12525.07161 eV
Virial Ratio       :            2.00575422


DFT components:
N(Alpha)           :       41.000030424019 electrons
N(Beta)            :       41.000030424019 electrons
N(Total)           :       82.000060848037 electrons
E(X)               :      -52.235236402585 Eh       
E(C)               :       -3.223289683776 Eh       
E(XC)              :      -55.458526086361 Eh       
DFET-embed. en.    :        0.000000000000 Eh       

---------------
SCF CONVERGENCE
---------------

  Last Energy change         ...   -5.0111e-09  Tolerance :   1.0000e-08
  Last MAX-Density change    ...    5.4021e-06  Tolerance :   1.0000e-07
  Last RMS-Density change    ...    1.9713e-07  Tolerance :   5.0000e-09
  Last Orbital Gradient      ...    1.3937e-06  Tolerance :   1.0000e-05
  Last Orbital Rotation      ...    5.9132e-06  Tolerance :   1.0000e-05

             **** THE GBW FILE WAS UPDATED (test_dummy_protonopt.gbw) ****
             **** DENSITY FILE WAS UPDATED (test_dummy_protonopt.scfp) ****
             **** ENERGY FILE WAS UPDATED (test_dummy_protonopt.en.tmp) ****
             **** THE GBW FILE WAS UPDATED (test_dummy_protonopt.gbw) ****
             **** DENSITY FILE WAS UPDATED (test_dummy_protonopt.scfp) ****
----------------
ORBITAL ENERGIES
----------------

  NO   OCC          E(Eh)            E(eV) 
   0   2.0000     -10.193193      -277.3709 
   1   2.0000     -10.192906      -277.3631 
   2   2.0000     -10.180325      -277.0207 
   3   2.0000     -10.180300      -277.0200 
   4   2.0000     -10.178991      -276.9844 
   5   2.0000     -10.178955      -276.9834 
   6   2.0000     -10.177689      -276.9490 
   7   2.0000     -10.177346      -276.9397 
   8   2.0000     -10.177169      -276.9348 
   9   2.0000     -10.177092      -276.9328 
  10   2.0000     -10.175231      -276.8821 
  11   2.0000     -10.174922      -276.8737 
  12   2.0000      -0.860557       -23.4169 
  13   2.0000      -0.835673       -22.7398 
  14   2.0000      -0.766375       -20.8541 
  15   2.0000      -0.742230       -20.1971 
  16   2.0000      -0.732483       -19.9319 
  17   2.0000      -0.712893       -19.3988 
  18   2.0000      -0.620441       -16.8831 
  19   2.0000      -0.606962       -16.5163 
  20   2.0000      -0.575994       -15.6736 
  21   2.0000      -0.574353       -15.6289 
  22   2.0000      -0.524496       -14.2722 
  23   2.0000      -0.498985       -13.5781 
  24   2.0000      -0.473659       -12.8889 
  25   2.0000      -0.450443       -12.2572 
  26   2.0000      -0.432180       -11.7602 
  27   2.0000      -0.420579       -11.4445 
  28   2.0000      -0.417986       -11.3740 
  29   2.0000      -0.415704       -11.3119 
  30   2.0000      -0.405668       -11.0388 
  31   2.0000      -0.380700       -10.3594 
  32   2.0000      -0.376837       -10.2542 
  33   2.0000      -0.341867        -9.3027 
  34   2.0000      -0.334978        -9.1152 
  35   2.0000      -0.328323        -8.9341 
  36   2.0000      -0.320206        -8.7133 
  37   2.0000      -0.264946        -7.2096 
  38   2.0000      -0.246774        -6.7151 
  39   2.0000      -0.238044        -6.4775 
  40   2.0000      -0.201919        -5.4945 
  41   0.0000      -0.033585        -0.9139 
  42   0.0000      -0.004382        -0.1192 
  43   0.0000       0.018258         0.4968 
  44   0.0000       0.021231         0.5777 
  45   0.0000       0.095325         2.5939 
  46   0.0000       0.110300         3.0014 
  47   0.0000       0.126801         3.4504 
  48   0.0000       0.127026         3.4566 
  49   0.0000       0.142622         3.8809 
  50   0.0000       0.155657         4.2356 
  51   0.0000       0.160194         4.3591 
  52   0.0000       0.175046         4.7632 
  53   0.0000       0.189220         5.1489 
  54   0.0000       0.192548         5.2395 
  55   0.0000       0.218819         5.9544 
  56   0.0000       0.235488         6.4080 
  57   0.0000       0.276190         7.5155 
  58   0.0000       0.277628         7.5546 
  59   0.0000       0.291917         7.9435 
  60   0.0000       0.301368         8.2007 
  61   0.0000       0.310068         8.4374 
  62   0.0000       0.329806         8.9745 
  63   0.0000       0.364676         9.9234 
  64   0.0000       0.383620        10.4388 
  65   0.0000       0.387230        10.5371 
  66   0.0000       0.455060        12.3828 
  67   0.0000       0.505135        13.7454 
  68   0.0000       0.525766        14.3068 
  69   0.0000       0.533237        14.5101 
  70   0.0000       0.539082        14.6692 
  71   0.0000       0.540667        14.7123 
  72   0.0000       0.548492        14.9252 
  73   0.0000       0.557690        15.1755 
  74   0.0000       0.577375        15.7112 
  75   0.0000       0.587178        15.9779 
  76   0.0000       0.595929        16.2161 
  77   0.0000       0.601126        16.3575 
  78   0.0000       0.602929        16.4065 
  79   0.0000       0.608028        16.5453 
  80   0.0000       0.613007        16.6808 
  81   0.0000       0.617896        16.8138 
  82   0.0000       0.619725        16.8636 
  83   0.0000       0.620843        16.8940 
  84   0.0000       0.633720        17.2444 
  85   0.0000       0.642517        17.4838 
  86   0.0000       0.644232        17.5304 
  87   0.0000       0.659990        17.9593 
  88   0.0000       0.676218        18.4008 
  89   0.0000       0.682190        18.5633 
  90   0.0000       0.687894        18.7186 
  91   0.0000       0.703119        19.1328 
  92   0.0000       0.741204        20.1692 
  93   0.0000       0.769082        20.9278 
  94   0.0000       0.833128        22.6706 
  95   0.0000       0.843769        22.9601 
  96   0.0000       0.849195        23.1078 
  97   0.0000       0.854899        23.2630 
  98   0.0000       0.858868        23.3710 
  99   0.0000       0.860837        23.4246 
 100   0.0000       0.874888        23.8069 
 101   0.0000       0.893202        24.3053 
 102   0.0000       0.908758        24.7286 
 103   0.0000       0.926708        25.2170 
 104   0.0000       0.935111        25.4457 
 105   0.0000       0.938814        25.5464 
 106   0.0000       0.939990        25.5784 
 107   0.0000       0.952054        25.9067 
 108   0.0000       0.953815        25.9546 
 109   0.0000       1.007340        27.4111 
 110   0.0000       1.015858        27.6429 
 111   0.0000       1.030420        28.0391 
 112   0.0000       1.030919        28.0527 
 113   0.0000       1.045902        28.4604 
 114   0.0000       1.054829        28.7034 
 115   0.0000       1.098681        29.8966 
 116   0.0000       1.137029        30.9401 
 117   0.0000       1.138255        30.9735 
 118   0.0000       1.150344        31.3024 
 119   0.0000       1.180111        32.1125 
 120   0.0000       1.232211        33.5302 
 121   0.0000       1.258480        34.2450 
 122   0.0000       1.273661        34.6581 
 123   0.0000       1.301776        35.4231 
 124   0.0000       1.366241        37.1773 
 125   0.0000       1.379922        37.5496 
 126   0.0000       1.417279        38.5661 
 127   0.0000       1.430379        38.9226 
 128   0.0000       1.469050        39.9749 
 129   0.0000       1.506295        40.9884 
 130   0.0000       1.518902        41.3314 
 131   0.0000       1.522150        41.4198 
 132   0.0000       1.528126        41.5824 
 133   0.0000       1.528341        41.5883 
 134   0.0000       1.569477        42.7076 
 135   0.0000       1.605077        43.6764 
 136   0.0000       1.614874        43.9430 
 137   0.0000       1.665970        45.3334 
 138   0.0000       1.692038        46.0427 
 139   0.0000       1.781743        48.4837 
 140   0.0000       1.797143        48.9027 
 141   0.0000       1.836249        49.9669 
 142   0.0000       1.840724        50.0886 
 143   0.0000       1.864079        50.7242 
 144   0.0000       1.901473        51.7417 
 145   0.0000       1.928633        52.4808 
 146   0.0000       1.972413        53.6721 
 147   0.0000       1.989222        54.1295 
 148   0.0000       2.000412        54.4340 
 149   0.0000       2.002437        54.4891 
 150   0.0000       2.035953        55.4011 
 151   0.0000       2.041889        55.5626 
 152   0.0000       2.090117        56.8750 
 153   0.0000       2.094524        56.9949 
 154   0.0000       2.107983        57.3611 
 155   0.0000       2.123252        57.7766 
 156   0.0000       2.136306        58.1318 
 157   0.0000       2.174476        59.1705 
 158   0.0000       2.205820        60.0234 
 159   0.0000       2.206381        60.0387 
 160   0.0000       2.222491        60.4771 
 161   0.0000       2.254363        61.3443 
 162   0.0000       2.291663        62.3593 
 163   0.0000       2.311009        62.8858 
 164   0.0000       2.358447        64.1766 
 165   0.0000       2.379092        64.7384 
 166   0.0000       2.389804        65.0299 
 167   0.0000       2.458260        66.8926 
 168   0.0000       2.501928        68.0809 
 169   0.0000       2.548916        69.3595 
 170   0.0000       2.572788        70.0091 
 171   0.0000       2.589326        70.4591 
 172   0.0000       2.602225        70.8101 
 173   0.0000       2.623110        71.3784 
 174   0.0000       2.644686        71.9656 
 175   0.0000       2.682132        72.9845 
 176   0.0000       2.691200        73.2313 
 177   0.0000       2.732267        74.3488 
 178   0.0000       2.754566        74.9556 
 179   0.0000       2.756420        75.0060 
 180   0.0000       2.783778        75.7504 
 181   0.0000       2.800097        76.1945 
 182   0.0000       2.834777        77.1382 
 183   0.0000       2.872940        78.1767 
 184   0.0000       2.976683        80.9997 
 185   0.0000       3.156431        85.8909 
 186   0.0000       3.291062        89.5543 
 187   0.0000       3.404549        92.6425 

                    ********************************
                    * MULLIKEN POPULATION ANALYSIS *
                    ********************************

-----------------------
MULLIKEN ATOMIC CHARGES
-----------------------
   0 C :   -0.118066
   1 C :   -0.133496
   2 C :   -0.161887
   3 C :    0.085011
   4 C :    0.084930
   5 C :   -0.186191
   6 C :   -0.134243
   7 C :   -0.116809
   8 C :   -0.132737
   9 C :   -0.161095
  10 C :   -0.186703
  11 C :   -0.132131
  12 H :    0.127126
  13 H :    0.126785
  14 H :    0.131379
  15 H :    0.126131
  16 H :    0.125466
  17 H :    0.127433
  18 H :    0.132576
  19 H :    0.124934
  20 H :    0.136151
  21 H :    0.135434
Sum of atomic charges:    0.0000000

--------------------------------
MULLIKEN REDUCED ORBITAL CHARGES
--------------------------------
  0 C s       :     3.178799  s :     3.178799
      pz      :     0.945042  p :     2.903797
      px      :     0.993300
      py      :     0.965455
      dz2     :     0.010089  d :     0.035470
      dxz     :     0.005423
      dyz     :     0.009333
      dx2y2   :     0.007990
      dxy     :     0.002636
  1 C s       :     3.192596  s :     3.192596
      pz      :     0.967684  p :     2.904188
      px      :     0.987717
      py      :     0.948788
      dz2     :     0.008550  d :     0.036712
      dxz     :     0.003879
      dyz     :     0.013301
      dx2y2   :     0.005242
      dxy     :     0.005739
  2 C s       :     3.190096  s :     3.190096
      pz      :     0.977111  p :     2.935451
      px      :     0.989088
      py      :     0.969252
      dz2     :     0.008576  d :     0.036340
      dxz     :     0.005585
      dyz     :     0.011419
      dx2y2   :     0.004989
      dxy     :     0.005771
  3 C s       :     3.145539  s :     3.145539
      pz      :     0.874215  p :     2.727768
      px      :     0.923005
      py      :     0.930547
      dz2     :     0.009934  d :     0.041682
      dxz     :     0.008368
      dyz     :     0.010043
      dx2y2   :     0.006391
      dxy     :     0.006946
  4 C s       :     3.145922  s :     3.145922
      pz      :     0.868252  p :     2.727430
      px      :     0.923248
      py      :     0.935931
      dz2     :     0.010131  d :     0.041718
      dxz     :     0.010989
      dyz     :     0.007880
      dx2y2   :     0.005868
      dxy     :     0.006850
  5 C s       :     3.195501  s :     3.195501
      pz      :     0.985044  p :     2.954886
      px      :     0.965860
      py      :     1.003982
      dz2     :     0.008814  d :     0.035803
      dxz     :     0.012257
      dyz     :     0.003376
      dx2y2   :     0.005535
      dxy     :     0.005821
  6 C s       :     3.196063  s :     3.196063
      pz      :     0.961494  p :     2.901692
      px      :     0.948102
      py      :     0.992096
      dz2     :     0.008611  d :     0.036488
      dxz     :     0.012323
      dyz     :     0.003816
      dx2y2   :     0.005319
      dxy     :     0.006420
  7 C s       :     3.182542  s :     3.182542
      pz      :     0.942816  p :     2.898890
      px      :     0.962224
      py      :     0.993850
      dz2     :     0.010268  d :     0.035377
      dxz     :     0.009360
      dyz     :     0.005592
      dx2y2   :     0.007228
      dxy     :     0.002929
  8 C s       :     3.192905  s :     3.192905
      pz      :     0.968128  p :     2.903115
      px      :     0.944503
      py      :     0.990483
      dz2     :     0.009653  d :     0.036718
      dxz     :     0.012684
      dyz     :     0.003450
      dx2y2   :     0.005123
      dxy     :     0.005809
  9 C s       :     3.188823  s :     3.188823
      pz      :     0.973794  p :     2.935910
      px      :     0.968547
      py      :     0.993569
      dz2     :     0.008893  d :     0.036362
      dxz     :     0.012887
      dyz     :     0.004387
      dx2y2   :     0.004692
      dxy     :     0.005503
 10 C s       :     3.196888  s :     3.196888
      pz      :     0.986745  p :     2.954072
      px      :     0.999291
      py      :     0.968037
      dz2     :     0.007688  d :     0.035742
      dxz     :     0.003965
      dyz     :     0.012318
      dx2y2   :     0.005987
      dxy     :     0.005783
 11 C s       :     3.195829  s :     3.195829
      pz      :     0.965902  p :     2.899870
      px      :     0.992748
      py      :     0.941220
      dz2     :     0.008265  d :     0.036432
      dxz     :     0.004549
      dyz     :     0.011028
      dx2y2   :     0.005568
      dxy     :     0.007022
 12 H s       :     0.872874  s :     0.872874
 13 H s       :     0.873215  s :     0.873215
 14 H s       :     0.868621  s :     0.868621
 15 H s       :     0.873869  s :     0.873869
 16 H s       :     0.874534  s :     0.874534
 17 H s       :     0.872567  s :     0.872567
 18 H s       :     0.867424  s :     0.867424
 19 H s       :     0.875066  s :     0.875066
 20 H s       :     0.863849  s :     0.863849
 21 H s       :     0.864566  s :     0.864566


                     *******************************
                     * LOEWDIN POPULATION ANALYSIS *
                     *******************************

----------------------
LOEWDIN ATOMIC CHARGES
----------------------
   0 C :   -0.140326
   1 C :   -0.126923
   2 C :   -0.122670
   3 C :   -0.012217
   4 C :   -0.012188
   5 C :   -0.132651
   6 C :   -0.125727
   7 C :   -0.139911
   8 C :   -0.126137
   9 C :   -0.123588
  10 C :   -0.132409
  11 C :   -0.125437
  12 H :    0.130493
  13 H :    0.132360
  14 H :    0.130809
  15 H :    0.129967
  16 H :    0.129949
  17 H :    0.132365
  18 H :    0.131110
  19 H :    0.129766
  20 H :    0.136521
  21 H :    0.136845

-------------------------------
LOEWDIN REDUCED ORBITAL CHARGES
-------------------------------
  0 C s       :     2.917429  s :     2.917429
      pz      :     1.062281  p :     3.140143
      px      :     0.997096
      py      :     1.080766
      dz2     :     0.025569  d :     0.082753
      dxz     :     0.012611
      dyz     :     0.025242
      dx2y2   :     0.014055
      dxy     :     0.005277
  1 C s       :     2.919981  s :     2.919981
      pz      :     1.065229  p :     3.120864
      px      :     0.988288
      py      :     1.067347
      dz2     :     0.020451  d :     0.086078
      dxz     :     0.007289
      dyz     :     0.032357
      dx2y2   :     0.012426
      dxy     :     0.013555
  2 C s       :     2.918784  s :     2.918784
      pz      :     1.058086  p :     3.118989
      px      :     0.997980
      py      :     1.062924
      dz2     :     0.020531  d :     0.084897
      dxz     :     0.010559
      dyz     :     0.028408
      dx2y2   :     0.013588
      dxy     :     0.011811
  3 C s       :     2.876514  s :     2.876514
      pz      :     1.054092  p :     3.033405
      px      :     0.982017
      py      :     0.997296
      dz2     :     0.026713  d :     0.102298
      dxz     :     0.020235
      dyz     :     0.026802
      dx2y2   :     0.012816
      dxy     :     0.015732
  4 C s       :     2.876465  s :     2.876465
      pz      :     1.059612  p :     3.033355
      px      :     1.000562
      py      :     0.973180
      dz2     :     0.027792  d :     0.102368
      dxz     :     0.029610
      dyz     :     0.018182
      dx2y2   :     0.011263
      dxy     :     0.015521
  5 C s       :     2.918022  s :     2.918022
      pz      :     1.055844  p :     3.130665
      px      :     1.064986
      py      :     1.009834
      dz2     :     0.020219  d :     0.083965
      dxz     :     0.029323
      dyz     :     0.007090
      dx2y2   :     0.014570
      dxy     :     0.012763
  6 C s       :     2.921764  s :     2.921764
      pz      :     1.058240  p :     3.118743
      px      :     1.068295
      py      :     0.992207
      dz2     :     0.019633  d :     0.085220
      dxz     :     0.030442
      dyz     :     0.007487
      dx2y2   :     0.013358
      dxy     :     0.014300
  7 C s       :     2.918117  s :     2.918117
      pz      :     1.064264  p :     3.139387
      px      :     1.079423
      py      :     0.995699
      dz2     :     0.026222  d :     0.082407
      dxz     :     0.025462
      dyz     :     0.012813
      dx2y2   :     0.012512
      dxy     :     0.005398
  8 C s       :     2.920001  s :     2.920001
      pz      :     1.067275  p :     3.120078
      px      :     1.068853
      py      :     0.983950
      dz2     :     0.022196  d :     0.086058
      dxz     :     0.031750
      dyz     :     0.006202
      dx2y2   :     0.012972
      dxy     :     0.012938
  9 C s       :     2.918646  s :     2.918646
      pz      :     1.060170  p :     3.119964
      px      :     1.066644
      py      :     0.993151
      dz2     :     0.021469  d :     0.084978
      dxz     :     0.031541
      dyz     :     0.008320
      dx2y2   :     0.012591
      dxy     :     0.011057
 10 C s       :     2.918325  s :     2.918325
      pz      :     1.051490  p :     3.130296
      px      :     1.014582
      py      :     1.064224
      dz2     :     0.017941  d :     0.083788
      dxz     :     0.008954
      dyz     :     0.028555
      dx2y2   :     0.015204
      dxy     :     0.013135
 11 C s       :     2.921718  s :     2.921718
      pz      :     1.054057  p :     3.118545
      px      :     0.998353
      py      :     1.066136
      dz2     :     0.018622  d :     0.085174
      dxz     :     0.008518
      dyz     :     0.027813
      dx2y2   :     0.013960
      dxy     :     0.016261
 12 H s       :     0.869507  s :     0.869507
 13 H s       :     0.867640  s :     0.867640
 14 H s       :     0.869191  s :     0.869191
 15 H s       :     0.870033  s :     0.870033
 16 H s       :     0.870051  s :     0.870051
 17 H s       :     0.867635  s :     0.867635
 18 H s       :     0.868890  s :     0.868890
 19 H s       :     0.870234  s :     0.870234
 20 H s       :     0.863479  s :     0.863479
 21 H s       :     0.863155  s :     0.863155


                      *****************************
                      * MAYER POPULATION ANALYSIS *
                      *****************************

  NA   - Mulliken gross atomic population
  ZA   - Total nuclear charge
  QA   - Mulliken gross atomic charge
  VA   - Mayer's total valence
  BVA  - Mayer's bonded valence
  FA   - Mayer's free valence

  ATOM       NA         ZA         QA         VA         BVA        FA
  0 C      6.1181     6.0000    -0.1181     3.9344     3.9344    -0.0000
  1 C      6.1335     6.0000    -0.1335     3.9511     3.9511    -0.0000
  2 C      6.1619     6.0000    -0.1619     3.9249     3.9249     0.0000
  3 C      5.9150     6.0000     0.0850     3.9669     3.9669    -0.0000
  4 C      5.9151     6.0000     0.0849     3.9659     3.9659    -0.0000
  5 C      6.1862     6.0000    -0.1862     3.9155     3.9155    -0.0000
  6 C      6.1342     6.0000    -0.1342     3.9473     3.9473     0.0000
  7 C      6.1168     6.0000    -0.1168     3.9292     3.9292     0.0000
  8 C      6.1327     6.0000    -0.1327     3.9520     3.9520     0.0000
  9 C      6.1611     6.0000    -0.1611     3.9242     3.9242     0.0000
 10 C      6.1867     6.0000    -0.1867     3.9135     3.9135     0.0000
 11 C      6.1321     6.0000    -0.1321     3.9474     3.9474    -0.0000
 12 H      0.8729     1.0000     0.1271     0.9375     0.9375     0.0000
 13 H      0.8732     1.0000     0.1268     0.9449     0.9449     0.0000
 14 H      0.8686     1.0000     0.1314     0.9383     0.9383    -0.0000
 15 H      0.8739     1.0000     0.1261     0.9380     0.9380    -0.0000
 16 H      0.8745     1.0000     0.1255     0.9378     0.9378     0.0000
 17 H      0.8726     1.0000     0.1274     0.9444     0.9444    -0.0000
 18 H      0.8674     1.0000     0.1326     0.9380     0.9380     0.0000
 19 H      0.8751     1.0000     0.1249     0.9385     0.9385    -0.0000
 20 H      0.8638     1.0000     0.1362     0.9317     0.9317    -0.0000
 21 H      0.8646     1.0000     0.1354     0.9321     0.9321     0.0000

  Mayer bond orders larger than 0.100000
B(  0-C ,  1-C ) :   1.4419 B(  0-C , 11-C ) :   1.4281 B(  0-C , 20-H ) :   0.9314 
B(  1-C ,  2-C ) :   1.4631 B(  1-C , 12-H ) :   0.9301 B(  2-C ,  3-C ) :   1.3989 
B(  2-C , 13-H ) :   0.9163 B(  3-C ,  4-C ) :   1.0455 B(  3-C , 10-C ) :   1.3741 
B(  4-C ,  5-C ) :   1.3753 B(  4-C ,  9-C ) :   1.3963 B(  5-C ,  6-C ) :   1.4717 
B(  5-C , 14-H ) :   0.9208 B(  6-C ,  7-C ) :   1.4261 B(  6-C , 15-H ) :   0.9302 
B(  7-C ,  8-C ) :   1.4382 B(  7-C , 21-H ) :   0.9317 B(  8-C ,  9-C ) :   1.4667 
B(  8-C , 16-H ) :   0.9304 B(  9-C , 17-H ) :   0.9165 B( 10-C , 11-C ) :   1.4705 
B( 10-C , 18-H ) :   0.9208 B( 11-C , 19-H ) :   0.9304 

-------
TIMINGS
-------

Total SCF time: 0 days 0 hours 1 min 16 sec 

Total time                  ....      76.938 sec
Sum of individual times     ....      76.548 sec  ( 99.5%)

Fock matrix formation       ....      74.377 sec  ( 96.7%)
  XC integration            ....       4.299 sec  (  5.8% of F)
    Basis function eval.    ....       1.779 sec  ( 41.4% of XC)
    Density eval.           ....       0.824 sec  ( 19.2% of XC)
    XC-Functional eval.     ....       0.246 sec  (  5.7% of XC)
    XC-Potential eval.      ....       1.331 sec  ( 31.0% of XC)
Diagonalization             ....       0.025 sec  (  0.0%)
Density matrix formation    ....       0.005 sec  (  0.0%)
Population analysis         ....       0.004 sec  (  0.0%)
Initial guess               ....       0.519 sec  (  0.7%)
Orbital Transformation      ....       0.000 sec  (  0.0%)
Orbital Orthonormalization  ....       0.000 sec  (  0.0%)
DIIS solution               ....       0.009 sec  (  0.0%)
SOSCF solution              ....       0.057 sec  (  0.1%)
Grid generation             ....       1.552 sec  (  2.0%)

-------------------------   --------------------
FINAL SINGLE POINT ENERGY      -462.936539934901
-------------------------   --------------------

------------------------------------------------------------------------------
                         ORCA SCF GRADIENT CALCULATION
------------------------------------------------------------------------------

Gradient of the Kohn-Sham DFT energy:
Kohn-Sham wavefunction type      ... RKS
Hartree-Fock exchange scaling    ...    0.200
Number of operators              ...    1
Number of atoms                  ...   22
Basis set dimensions             ...  188
Integral neglect threshold       ... 2.5e-11
Integral primitive cutoff        ... 2.5e-12

Nuclear repulsion gradient       ... done
One Electron Gradient            ... done
Pre-screening matrix             ... done
Starting the two electron gradient:
Two electron gradient done
Exchange-correlation gradient    ... done

------------------
CARTESIAN GRADIENT
------------------

WARNING: THERE ARE 60 CONSTRAINED CARTESIAN COORDINATES
   1   C   :    0.013827846    0.063446597   -0.007841913
   2   C   :   -0.008456038   -0.013546858    0.007421165
   3   C   :   -0.004690284    0.002197706    0.000639599
   4   C   :    0.003138413   -0.003029509    0.000180236
   5   C   :   -0.003689452    0.002518723   -0.000126962
   6   C   :    0.003449570   -0.002327513   -0.000987827
   7   C   :   -0.009242527   -0.009600480    0.001736414
   8   C   :    0.063715452    0.022269615    0.002458259
   9   C   :   -0.013194236   -0.010093417   -0.005448497
  10   C   :    0.003613575   -0.003849616   -0.000653207
  11   C   :   -0.002454477    0.002824634    0.001204270
  12   C   :   -0.008114037   -0.009338010   -0.000797581
  13   H   :    0.002880301   -0.001284976   -0.002343603
  14   H   :   -0.000070933    0.000477031    0.000073616
  15   H   :    0.000405069   -0.000295371   -0.000111983
  16   H   :   -0.001283087    0.000823571   -0.000382511
  17   H   :   -0.002483639    0.001936085    0.002024084
  18   H   :    0.000436261   -0.000181265   -0.000088482
  19   H   :   -0.000484165    0.000329411    0.000053016
  20   H   :    0.000825047   -0.000273909    0.000189753
  21   H   :    0.005270655   -0.043318277    0.001749071
  22   H   :   -0.043399315    0.000315828    0.001053083

Difference to translation invariance:
           :   -0.0000000000   -0.0000000000   -0.0000000000

Norm of the cartesian gradient     ...    0.1172347094
RMS gradient                       ...    0.0144305952
MAX gradient                       ...    0.0637154523

-------
TIMINGS
-------

Total SCF gradient time            ...       30.244 sec

One electron gradient       ....       0.194 sec  (  0.6%)
Prescreening matrices       ....       0.127 sec  (  0.4%)
Two electron gradient       ....      23.870 sec  ( 78.9%)
XC gradient                 ....       5.925 sec  ( 19.6%)
------------------------------------------------------------------------------
                         ORCA GEOMETRY RELAXATION STEP
------------------------------------------------------------------------------

Reading the OPT-File                    .... done
Getting information on internals        .... done
Copying old internal coords+grads       .... done
Making the new internal coordinates     .... (new redundants).... done
Validating the new internal coordinates .... (new redundants).... done
Calculating the B-matrix                .... done
Calculating the G,G- and P matrices     .... done
Transforming gradient to internals      .... done
Projecting the internal gradient        .... done
Number of atoms                         ....  22
Number of internal coordinates          .... 171
Current Energy                          ....  -462.936539935 Eh
Current gradient norm                   ....     0.117234709 Eh/bohr
Maximum allowed component of the step   ....  0.300
Current trust radius                    ....  0.300
Evaluating the initial hessian          ....  (Almloef) done
Projecting the Hessian                  .... done
Forming the augmented Hessian           .... done
Diagonalizing the augmented Hessian     .... done
Last element of RFO vector              ....  0.958568441
Lowest eigenvalues of augmented Hessian:
 -0.010423137  0.023036537  0.025355737  0.361560957  0.361839145
Length of the computed step             ....  0.297174736
The final length of the internal step   ....  0.297174736
Converting the step to cartesian space:
 Initial RMS(Int)=    0.0227255200
Transforming coordinates:
 Iter   0:  RMS(Cart)=    0.0315384143 RMS(Int)=    0.0221515055
 Iter   1:  RMS(Cart)=    0.0016286439 RMS(Int)=    0.0011475383
 Iter   2:  RMS(Cart)=    0.0000984737 RMS(Int)=    0.0000662223
 Iter   3:  RMS(Cart)=    0.0000087338 RMS(Int)=    0.0000062690
 Iter   4:  RMS(Cart)=    0.0000007798 RMS(Int)=    0.0000005376
 Iter   5:  RMS(Cart)=    0.0000000470 RMS(Int)=    0.0000000326
Imposing constraints:
 Iter   0:  RMS(Cart)=    0.0000591612 RMS(Int)=    0.0000561482
 Iter   1:  RMS(Cart)=    0.0000267186 RMS(Int)=    0.0000378989
 Iter   2:  RMS(Cart)=    0.0000143625 RMS(Int)=    0.0000279475
 Iter   3:  RMS(Cart)=    0.0000087389 RMS(Int)=    0.0000214764
 Iter   4:  RMS(Cart)=    0.0000058426 RMS(Int)=    0.0000168276
 Iter   5:  RMS(Cart)=    0.0000041751 RMS(Int)=    0.0000133170
 Iter   6:  RMS(Cart)=    0.0000031128 RMS(Int)=    0.0000106018
 Iter   7:  RMS(Cart)=    0.0000023807 RMS(Int)=    0.0000084769
 Iter   8:  RMS(Cart)=    0.0000018489 RMS(Int)=    0.0000068039
 Iter   9:  RMS(Cart)=    0.0000014498 RMS(Int)=    0.0000054819
 Iter  10:  RMS(Cart)=    0.0000011441 RMS(Int)=    0.0000044347
 Iter  11:  RMS(Cart)=    0.0000009073 RMS(Int)=    0.0000036038
 Iter  12:  RMS(Cart)=    0.0000007222 RMS(Int)=    0.0000029433
 Iter  13:  RMS(Cart)=    0.0000005770 RMS(Int)=    0.0000024174
 Iter  14:  RMS(Cart)=    0.0000004625 RMS(Int)=    0.0000019979
 Iter  15:  RMS(Cart)=    0.0000003721 RMS(Int)=    0.0000016626
 Iter  16:  RMS(Cart)=    0.0000003005 RMS(Int)=    0.0000013936
 Iter  17:  RMS(Cart)=    0.0000002436 RMS(Int)=    0.0000011772
 Iter  18:  RMS(Cart)=    0.0000001985 RMS(Int)=    0.0000010024
 Iter  19:  RMS(Cart)=    0.0000001625 RMS(Int)=    0.0000008602
 Iter  20:  RMS(Cart)=    0.0000001338 RMS(Int)=    0.0000007439
 Iter  21:  RMS(Cart)=    0.0000001108 RMS(Int)=    0.0000006481
 Iter  22:  RMS(Cart)=    0.0000000924 RMS(Int)=    0.0000005685
 Iter  23:  RMS(Cart)=    0.0000000775 RMS(Int)=    0.0000005018
 Iter  24:  RMS(Cart)=    0.0000000656 RMS(Int)=    0.0000004453
 Iter  25:  RMS(Cart)=    0.0000000558 RMS(Int)=    0.0000003971
 Iter  26:  RMS(Cart)=    0.0000000479 RMS(Int)=    0.0000003555
 Iter  27:  RMS(Cart)=    0.0000000414 RMS(Int)=    0.0000003194
 Iter  28:  RMS(Cart)=    0.0000000360 RMS(Int)=    0.0000002879
 Iter  29:  RMS(Cart)=    0.0000000315 RMS(Int)=    0.0000002601
 Iter  30:  RMS(Cart)=    0.0000000277 RMS(Int)=    0.0000002354
 Iter  31:  RMS(Cart)=    0.0000000245 RMS(Int)=    0.0000002134
 Iter  32:  RMS(Cart)=    0.0000000218 RMS(Int)=    0.0000001938
 Iter  33:  RMS(Cart)=    0.0000000194 RMS(Int)=    0.0000001761
 Iter  34:  RMS(Cart)=    0.0000000174 RMS(Int)=    0.0000001603
 Iter  35:  RMS(Cart)=    0.0000000156 RMS(Int)=    0.0000001459
 Iter  36:  RMS(Cart)=    0.0000000141 RMS(Int)=    0.0000001329
 Iter  37:  RMS(Cart)=    0.0000000127 RMS(Int)=    0.0000001212
 Iter  38:  RMS(Cart)=    0.0000000115 RMS(Int)=    0.0000001105
 Iter  39:  RMS(Cart)=    0.0000000104 RMS(Int)=    0.0000001008
 Iter  40:  RMS(Cart)=    0.0000000094 RMS(Int)=    0.0000000919
CONVERGED
done
Storing new coordinates                 .... done

                                .--------------------.
          ----------------------|Geometry convergence|-------------------------
          Item                value                   Tolerance       Converged
          ---------------------------------------------------------------------
          RMS gradient        0.0046858488            0.0001000000      NO
          MAX gradient        0.0430310257            0.0003000000      NO
          RMS step            0.0227255200            0.0020000000      NO
          MAX step            0.0961934882            0.0040000000      NO
          ........................................................
          Max(Bonds)      0.0499      Max(Angles)    0.01
          Max(Dihed)        5.51      Max(Improp)    0.00
          ---------------------------------------------------------------------

The optimization has not yet converged - more geometry cycles are needed


    ---------------------------------------------------------------------------
                         Redundant Internal Coordinates
                            (Angstroem and degrees)

        Definition                    Value    dE/dq     Step     New-Value
    ----------------------------------------------------------------------------
     1. B(C   1,C   0)                1.4083  0.005281 -0.0000    1.4083   
     2. B(C   2,C   1)                1.3906 -0.002330 -0.0000    1.3906   
     3. B(C   3,C   2)                1.4085  0.000449  0.0000    1.4085   
     4. B(C   4,C   3)                1.4941 -0.000098  0.0000    1.4941   
     5. B(C   5,C   4)                1.4117  0.000706  0.0000    1.4117   
     6. B(C   6,C   5)                1.3933 -0.001312  0.0000    1.3933   
     7. B(C   7,C   6)                1.4129  0.005737  0.0000    1.4129   
     8. B(C   8,C   7)                1.4097  0.005748  0.0000    1.4097   
     9. B(C   9,C   4)                1.4087  0.000546 -0.0000    1.4087   
    10. B(C   9,C   8)                1.3901 -0.002518  0.0000    1.3901   
    11. B(C  10,C   3)                1.4123  0.000698 -0.0000    1.4123   
    12. B(C  11,C   0)                1.4118  0.005225  0.0000    1.4118   
    13. B(C  11,C  10)                1.3939 -0.001059  0.0000    1.3939   
    14. B(H  12,C   1)                1.0855 -0.000916 -0.0000    1.0855   
    15. B(H  13,C   2)                1.0853  0.000209 -0.0000    1.0853   
    16. B(H  14,C   5)                1.0871  0.000238 -0.0000    1.0871   
    17. B(H  15,C   6)                1.0865 -0.000832 -0.0000    1.0865   
    18. B(H  16,C   8)                1.0848 -0.001178 -0.0000    1.0848   
    19. B(H  17,C   9)                1.0855  0.000275 -0.0000    1.0855   
    20. B(H  18,C  10)                1.0871  0.000248 -0.0000    1.0871   
    21. B(H  19,C  11)                1.0873 -0.000616  0.0000    1.0873   
    22. B(H  20,C   0)                1.0320 -0.043031  0.0499    1.0819   
    23. B(H  21,C   7)                1.0320 -0.042708  0.0496    1.0816   
    24. A(C  11,C   0,H  20)          122.19  0.002467   -0.01    122.18   
    25. A(C   1,C   0,H  20)          122.19  0.002346    0.01    122.20   
    26. A(C   1,C   0,C  11)          115.63 -0.004813    0.00    115.63   
    27. A(C   0,C   1,H  12)          119.78 -0.002808    0.00    119.78   
    28. A(C   0,C   1,C   2)          120.99  0.001506    0.00    120.99   
    29. A(C   2,C   1,H  12)          117.80  0.000463   -0.00    117.80   
    30. A(C   1,C   2,C   3)          121.02  0.000812   -0.00    121.02   
    31. A(C   1,C   2,H  13)          117.70 -0.000821    0.00    117.70   
    32. A(C   3,C   2,H  13)          119.86 -0.000401    0.00    119.86   
    33. A(C   2,C   3,C  10)          115.56 -0.001258    0.00    115.56   
    34. A(C   4,C   3,C  10)          122.51  0.000407   -0.00    122.51   
    35. A(C   2,C   3,C   4)          117.26  0.000913   -0.00    117.26   
    36. A(C   3,C   4,C   5)          122.44  0.000458   -0.00    122.44   
    37. A(C   3,C   4,C   9)          117.50  0.000995   -0.00    117.50   
    38. A(C   5,C   4,C   9)          115.36 -0.001392    0.00    115.36   
    39. A(C   4,C   5,H  14)          120.09 -0.000677    0.00    120.09   
    40. A(C   6,C   5,H  14)          118.37 -0.000531   -0.00    118.37   
    41. A(C   4,C   5,C   6)          120.87  0.000990    0.00    120.87   
    42. A(C   5,C   6,H  15)          118.06  0.000027    0.00    118.06   
    43. A(C   7,C   6,H  15)          120.23 -0.001581    0.00    120.23   
    44. A(C   5,C   6,C   7)          121.04  0.001085   -0.00    121.04   
    45. A(C   6,C   7,H  21)          122.43  0.002786   -0.01    122.42   
    46. A(C   8,C   7,H  21)          122.43  0.002684    0.01    122.43   
    47. A(C   6,C   7,C   8)          115.15 -0.005470    0.00    115.15   
    48. A(C   7,C   8,C   9)          121.13  0.001727   -0.00    121.13   
    49. A(C   7,C   8,H  16)          120.22 -0.002586   -0.00    120.22   
    50. A(C   9,C   8,H  16)          117.39  0.000100    0.00    117.39   
    51. A(C   4,C   9,C   8)          121.09  0.000905   -0.00    121.09   
    52. A(C   4,C   9,H  17)          119.88 -0.000531   -0.00    119.88   
    53. A(C   8,C   9,H  17)          117.73 -0.000731    0.00    117.73   
    54. A(C   3,C  10,C  11)          120.85  0.000985   -0.00    120.85   
    55. A(C   3,C  10,H  18)          120.05 -0.000615    0.00    120.05   
    56. A(C  11,C  10,H  18)          118.45 -0.000580   -0.00    118.45   
    57. A(C   0,C  11,C  10)          120.82  0.000732   -0.00    120.82   
[...]
 113   0.0000       1.055144        28.7119 
 114   0.0000       1.065408        28.9912 
 115   0.0000       1.097061        29.8526 
 116   0.0000       1.143060        31.1043 
 117   0.0000       1.154964        31.4282 
 118   0.0000       1.170917        31.8623 
 119   0.0000       1.184504        32.2320 
 120   0.0000       1.186413        32.2839 
 121   0.0000       1.235501        33.6197 
 122   0.0000       1.267662        34.4948 
 123   0.0000       1.299926        35.3728 
 124   0.0000       1.366466        37.1834 
 125   0.0000       1.372663        37.3521 
 126   0.0000       1.402819        38.1726 
 127   0.0000       1.403571        38.1931 
 128   0.0000       1.468248        39.9531 
 129   0.0000       1.491248        40.5789 
 130   0.0000       1.496085        40.7105 
 131   0.0000       1.507974        41.0341 
 132   0.0000       1.519109        41.3371 
 133   0.0000       1.523640        41.4603 
 134   0.0000       1.578318        42.9482 
 135   0.0000       1.607318        43.7373 
 136   0.0000       1.630734        44.3745 
 137   0.0000       1.678453        45.6730 
 138   0.0000       1.705889        46.4196 
 139   0.0000       1.775677        48.3186 
 140   0.0000       1.797017        48.8993 
 141   0.0000       1.836224        49.9662 
 142   0.0000       1.842428        50.1350 
 143   0.0000       1.862753        50.6881 
 144   0.0000       1.890099        51.4322 
 145   0.0000       1.902341        51.7653 
 146   0.0000       1.973267        53.6953 
 147   0.0000       1.987581        54.0848 
 148   0.0000       1.999972        54.4220 
 149   0.0000       2.001519        54.4641 
 150   0.0000       2.030351        55.2487 
 151   0.0000       2.032485        55.3067 
 152   0.0000       2.090735        56.8918 
 153   0.0000       2.091440        56.9110 
 154   0.0000       2.106361        57.3170 
 155   0.0000       2.124377        57.8072 
 156   0.0000       2.144412        58.3524 
 157   0.0000       2.173571        59.1459 
 158   0.0000       2.205002        60.0012 
 159   0.0000       2.208339        60.0920 
 160   0.0000       2.221464        60.4491 
 161   0.0000       2.256586        61.4048 
 162   0.0000       2.291031        62.3421 
 163   0.0000       2.307415        62.7880 
 164   0.0000       2.356871        64.1337 
 165   0.0000       2.377124        64.6848 
 166   0.0000       2.388003        64.9809 
 167   0.0000       2.455016        66.8044 
 168   0.0000       2.500309        68.0369 
 169   0.0000       2.545424        69.2645 
 170   0.0000       2.571334        69.9696 
 171   0.0000       2.588721        70.4427 
 172   0.0000       2.596333        70.6498 
 173   0.0000       2.607451        70.9523 
 174   0.0000       2.644032        71.9478 
 175   0.0000       2.661466        72.4222 
 176   0.0000       2.691467        73.2385 
 177   0.0000       2.728040        74.2337 
 178   0.0000       2.749287        74.8119 
 179   0.0000       2.755157        74.9716 
 180   0.0000       2.783124        75.7327 
 181   0.0000       2.789419        75.9040 
 182   0.0000       2.835276        77.1518 
 183   0.0000       2.868508        78.0561 
 184   0.0000       2.977115        81.0114 
 185   0.0000       3.156046        85.8804 
 186   0.0000       3.278619        89.2158 
 187   0.0000       3.394441        92.3674 

                    ********************************
                    * MULLIKEN POPULATION ANALYSIS *
                    ********************************

-----------------------
MULLIKEN ATOMIC CHARGES
-----------------------
   0 C :   -0.122531
   1 C :   -0.131881
   2 C :   -0.160312
   3 C :    0.083203
   4 C :    0.083226
   5 C :   -0.184368
   6 C :   -0.132347
   7 C :   -0.123918
   8 C :   -0.130573
   9 C :   -0.159662
  10 C :   -0.184902
  11 C :   -0.130893
  12 H :    0.127765
  13 H :    0.126993
  14 H :    0.131176
  15 H :    0.126413
  16 H :    0.125996
  17 H :    0.127583
  18 H :    0.132432
  19 H :    0.125373
  20 H :    0.135146
  21 H :    0.136080
Sum of atomic charges:   -0.0000000

--------------------------------
MULLIKEN REDUCED ORBITAL CHARGES
--------------------------------
  0 C s       :     3.185541  s :     3.185541
      pz      :     0.942773  p :     2.901588
      px      :     0.988468
      py      :     0.970347
      dz2     :     0.009957  d :     0.035401
      dxz     :     0.005413
      dyz     :     0.009576
      dx2y2   :     0.007304
      dxy     :     0.003150
  1 C s       :     3.192592  s :     3.192592
      pz      :     0.970664  p :     2.902585
      px      :     0.986092
      py      :     0.945830
      dz2     :     0.008508  d :     0.036704
      dxz     :     0.003896
      dyz     :     0.013317
      dx2y2   :     0.005280
      dxy     :     0.005703
  2 C s       :     3.188340  s :     3.188340
      pz      :     0.977186  p :     2.935668
      px      :     0.988171
      py      :     0.970311
      dz2     :     0.008598  d :     0.036304
      dxz     :     0.005548
      dyz     :     0.011413
      dx2y2   :     0.004954
      dxy     :     0.005791
  3 C s       :     3.147732  s :     3.147732
      pz      :     0.874964  p :     2.727350
      px      :     0.926450
      py      :     0.925935
      dz2     :     0.009949  d :     0.041715
      dxz     :     0.008380
      dyz     :     0.010045
      dx2y2   :     0.006387
      dxy     :     0.006954
  4 C s       :     3.148245  s :     3.148245
      pz      :     0.869280  p :     2.726772
      px      :     0.918928
      py      :     0.938564
      dz2     :     0.010145  d :     0.041756
      dxz     :     0.010990
      dyz     :     0.007896
      dx2y2   :     0.005869
      dxy     :     0.006856
  5 C s       :     3.193897  s :     3.193897
      pz      :     0.983722  p :     2.954702
      px      :     0.966493
      py      :     1.004487
      dz2     :     0.008812  d :     0.035769
      dxz     :     0.012335
      dyz     :     0.003398
      dx2y2   :     0.005479
      dxy     :     0.005745
  6 C s       :     3.196664  s :     3.196664
      pz      :     0.958258  p :     2.899207
      px      :     0.945851
      py      :     0.995098
      dz2     :     0.008654  d :     0.036476
      dxz     :     0.012259
      dyz     :     0.003826
      dx2y2   :     0.005280
      dxy     :     0.006457
  7 C s       :     3.187953  s :     3.187953
      pz      :     0.939631  p :     2.900634
      px      :     0.964151
      py      :     0.996852
      dz2     :     0.009996  d :     0.035331
      dxz     :     0.009770
      dyz     :     0.005649
      dx2y2   :     0.007366
      dxy     :     0.002550
  8 C s       :     3.193255  s :     3.193255
      pz      :     0.970731  p :     2.900614
      px      :     0.941843
      py      :     0.988040
      dz2     :     0.009600  d :     0.036704
      dxz     :     0.012677
      dyz     :     0.003497
      dx2y2   :     0.005146
      dxy     :     0.005784
  9 C s       :     3.187050  s :     3.187050
      pz      :     0.973586  p :     2.936288
      px      :     0.969672
      py      :     0.993031
      dz2     :     0.008911  d :     0.036324
      dxz     :     0.012898
      dyz     :     0.004359
      dx2y2   :     0.004657
      dxy     :     0.005499
 10 C s       :     3.195320  s :     3.195320
      pz      :     0.985369  p :     2.953870
      px      :     0.999539
      py      :     0.968962
      dz2     :     0.007683  d :     0.035712
      dxz     :     0.003983
      dyz     :     0.012412
      dx2y2   :     0.005906
      dxy     :     0.005729
 11 C s       :     3.196688  s :     3.196688
      pz      :     0.961698  p :     2.897787
      px      :     0.997975
      py      :     0.938115
      dz2     :     0.008332  d :     0.036418
      dxz     :     0.004530
      dyz     :     0.010971
      dx2y2   :     0.005523
      dxy     :     0.007061
 12 H s       :     0.872235  s :     0.872235
 13 H s       :     0.873007  s :     0.873007
 14 H s       :     0.868824  s :     0.868824
 15 H s       :     0.873587  s :     0.873587
 16 H s       :     0.874004  s :     0.874004
 17 H s       :     0.872417  s :     0.872417
 18 H s       :     0.867568  s :     0.867568
 19 H s       :     0.874627  s :     0.874627
 20 H s       :     0.864854  s :     0.864854
 21 H s       :     0.863920  s :     0.863920


                     *******************************
                     * LOEWDIN POPULATION ANALYSIS *
                     *******************************

----------------------
LOEWDIN ATOMIC CHARGES
----------------------
   0 C :   -0.136480
   1 C :   -0.127965
   2 C :   -0.123060
   3 C :   -0.011009
   4 C :   -0.010837
   5 C :   -0.132921
   6 C :   -0.126195
   7 C :   -0.136807
   8 C :   -0.126926
   9 C :   -0.124031
  10 C :   -0.132615
  11 C :   -0.126170
  12 H :    0.130809
  13 H :    0.132279
  14 H :    0.130623
  15 H :    0.130117
  16 H :    0.130224
  17 H :    0.132240
  18 H :    0.130951
  19 H :    0.129975
  20 H :    0.133662
  21 H :    0.134136

-------------------------------
LOEWDIN REDUCED ORBITAL CHARGES
-------------------------------
  0 C s       :     2.926274  s :     2.926274
      pz      :     1.060991  p :     3.128291
      px      :     0.995747
      py      :     1.071553
      dz2     :     0.025189  d :     0.081915
      dxz     :     0.012480
      dyz     :     0.025314
      dx2y2   :     0.012920
      dxy     :     0.006012
  1 C s       :     2.920485  s :     2.920485
      pz      :     1.065008  p :     3.121363
      px      :     0.988977
      py      :     1.067378
      dz2     :     0.020269  d :     0.086117
      dxz     :     0.007341
      dyz     :     0.032515
      dx2y2   :     0.012501
      dxy     :     0.013491
  2 C s       :     2.918599  s :     2.918599
      pz      :     1.058019  p :     3.119631
      px      :     0.998153
      py      :     1.063459
      dz2     :     0.020553  d :     0.084830
      dxz     :     0.010487
      dyz     :     0.028399
      dx2y2   :     0.013543
      dxy     :     0.011847
  3 C s       :     2.876868  s :     2.876868
      pz      :     1.054366  p :     3.031782
      px      :     0.981387
      py      :     0.996029
      dz2     :     0.026772  d :     0.102359
      dxz     :     0.020266
      dyz     :     0.026790
      dx2y2   :     0.012786
      dxy     :     0.015746
  4 C s       :     2.876846  s :     2.876846
      pz      :     1.060011  p :     3.031553
      px      :     0.999430
      py      :     0.972112
      dz2     :     0.027855  d :     0.102439
      dxz     :     0.029596
      dyz     :     0.018214
      dx2y2   :     0.011241
      dxy     :     0.015534
  5 C s       :     2.917818  s :     2.917818
      pz      :     1.055598  p :     3.131198
      px      :     1.065452
      py      :     1.010148
      dz2     :     0.020213  d :     0.083905
      dxz     :     0.029500
      dyz     :     0.007111
      dx2y2   :     0.014483
      dxy     :     0.012598
  6 C s       :     2.922325  s :     2.922325
      pz      :     1.059430  p :     3.118599
      px      :     1.068736
      py      :     0.990432
      dz2     :     0.019770  d :     0.085271
      dxz     :     0.030387
      dyz     :     0.007390
      dx2y2   :     0.013261
      dxy     :     0.014462
  7 C s       :     2.926954  s :     2.926954
      pz      :     1.063111  p :     3.128263
      px      :     1.070856
      py      :     0.994296
      dz2     :     0.025548  d :     0.081590
      dxz     :     0.025912
      dyz     :     0.012809
      dx2y2   :     0.012720
      dxy     :     0.004601
  8 C s       :     2.920509  s :     2.920509
      pz      :     1.067307  p :     3.120311
      px      :     1.069336
      py      :     0.983668
      dz2     :     0.022031  d :     0.086106
      dxz     :     0.031861
      dyz     :     0.006274
      dx2y2   :     0.013002
      dxy     :     0.012938
  9 C s       :     2.918435  s :     2.918435
      pz      :     1.060036  p :     3.120694
      px      :     1.067323
      py      :     0.993335
      dz2     :     0.021482  d :     0.084902
      dxz     :     0.031571
      dyz     :     0.008262
      dx2y2   :     0.012534
      dxy     :     0.011053
 10 C s       :     2.918132  s :     2.918132
      pz      :     1.051218  p :     3.130748
      px      :     1.014901
      py      :     1.064629
      dz2     :     0.017929  d :     0.083736
      dxz     :     0.008970
      dyz     :     0.028758
      dx2y2   :     0.015057
      dxy     :     0.013022
 11 C s       :     2.922318  s :     2.922318
      pz      :     1.055207  p :     3.118648
      px      :     0.997312
      py      :     1.066128
      dz2     :     0.018783  d :     0.085204
      dxz     :     0.008372
      dyz     :     0.027784
      dx2y2   :     0.013882
      dxy     :     0.016382
 12 H s       :     0.869191  s :     0.869191
 13 H s       :     0.867721  s :     0.867721
 14 H s       :     0.869377  s :     0.869377
 15 H s       :     0.869883  s :     0.869883
 16 H s       :     0.869776  s :     0.869776
 17 H s       :     0.867760  s :     0.867760
 18 H s       :     0.869049  s :     0.869049
 19 H s       :     0.870025  s :     0.870025
 20 H s       :     0.866338  s :     0.866338
 21 H s       :     0.865864  s :     0.865864


                      *****************************
                      * MAYER POPULATION ANALYSIS *
                      *****************************

  NA   - Mulliken gross atomic population
  ZA   - Total nuclear charge
  QA   - Mulliken gross atomic charge
  VA   - Mayer's total valence
  BVA  - Mayer's bonded valence
  FA   - Mayer's free valence

  ATOM       NA         ZA         QA         VA         BVA        FA
  0 C      6.1225     6.0000    -0.1225     3.9281     3.9281    -0.0000
  1 C      6.1319     6.0000    -0.1319     3.9495     3.9495     0.0000
  2 C      6.1603     6.0000    -0.1603     3.9251     3.9251    -0.0000
  3 C      5.9168     6.0000     0.0832     3.9704     3.9704     0.0000
  4 C      5.9168     6.0000     0.0832     3.9695     3.9695    -0.0000
  5 C      6.1844     6.0000    -0.1844     3.9151     3.9151    -0.0000
  6 C      6.1323     6.0000    -0.1323     3.9470     3.9470    -0.0000
  7 C      6.1239     6.0000    -0.1239     3.9236     3.9236    -0.0000
  8 C      6.1306     6.0000    -0.1306     3.9508     3.9508    -0.0000
  9 C      6.1597     6.0000    -0.1597     3.9242     3.9242     0.0000
 10 C      6.1849     6.0000    -0.1849     3.9129     3.9129     0.0000
 11 C      6.1309     6.0000    -0.1309     3.9467     3.9467     0.0000
 12 H      0.8722     1.0000     0.1278     0.9377     0.9377     0.0000
 13 H      0.8730     1.0000     0.1270     0.9444     0.9444    -0.0000
 14 H      0.8688     1.0000     0.1312     0.9379     0.9379    -0.0000
 15 H      0.8736     1.0000     0.1264     0.9383     0.9383    -0.0000
 16 H      0.8740     1.0000     0.1260     0.9381     0.9381     0.0000
 17 H      0.8724     1.0000     0.1276     0.9439     0.9439    -0.0000
 18 H      0.8676     1.0000     0.1324     0.9376     0.9376     0.0000
 19 H      0.8746     1.0000     0.1254     0.9387     0.9387     0.0000
 20 H      0.8649     1.0000     0.1351     0.9369     0.9369    -0.0000
 21 H      0.8639     1.0000     0.1361     0.9369     0.9369    -0.0000

  Mayer bond orders larger than 0.100000
B(  0-C ,  1-C ) :   1.4398 B(  0-C , 11-C ) :   1.4276 B(  0-C , 20-H ) :   0.9289 
B(  1-C ,  2-C ) :   1.4622 B(  1-C , 12-H ) :   0.9300 B(  2-C ,  3-C ) :   1.4003 
B(  2-C , 13-H ) :   0.9163 B(  3-C ,  4-C ) :   1.0461 B(  3-C , 10-C ) :   1.3758 
B(  4-C ,  5-C ) :   1.3770 B(  4-C ,  9-C ) :   1.3977 B(  5-C ,  6-C ) :   1.4706 
B(  5-C , 14-H ) :   0.9206 B(  6-C ,  7-C ) :   1.4256 B(  6-C , 15-H ) :   0.9304 
B(  7-C ,  8-C ) :   1.4370 B(  7-C , 21-H ) :   0.9291 B(  8-C ,  9-C ) :   1.4655 
B(  8-C , 16-H ) :   0.9304 B(  9-C , 17-H ) :   0.9165 B( 10-C , 11-C ) :   1.4691 
B( 10-C , 18-H ) :   0.9207 B( 11-C , 19-H ) :   0.9306 

-------
TIMINGS
-------

Total SCF time: 0 days 0 hours 0 min 32 sec 

Total time                  ....      32.364 sec
Sum of individual times     ....      32.173 sec  ( 99.4%)

Fock matrix formation       ....      30.584 sec  ( 94.5%)
  XC integration            ....       2.380 sec  (  7.8% of F)
    Basis function eval.    ....       1.033 sec  ( 43.4% of XC)
    Density eval.           ....       0.476 sec  ( 20.0% of XC)
    XC-Functional eval.     ....       0.143 sec  (  6.0% of XC)
    XC-Potential eval.      ....       0.658 sec  ( 27.6% of XC)
Diagonalization             ....       0.004 sec  (  0.0%)
Density matrix formation    ....       0.003 sec  (  0.0%)
Population analysis         ....       0.004 sec  (  0.0%)
Initial guess               ....       0.004 sec  (  0.0%)
Orbital Transformation      ....       0.000 sec  (  0.0%)
Orbital Orthonormalization  ....       0.003 sec  (  0.0%)
DIIS solution               ....       0.001 sec  (  0.0%)
SOSCF solution              ....       0.014 sec  (  0.0%)
Grid generation             ....       1.560 sec  (  4.8%)

-------------------------   --------------------
FINAL SINGLE POINT ENERGY      -462.942898707924
-------------------------   --------------------

                                *** OPTIMIZATION RUN DONE ***

                            ***************************************
                            *     ORCA property calculations      *
                            ***************************************

                                    ---------------------
                                    Active property flags
                                    ---------------------
   (+) Dipole Moment


------------------------------------------------------------------------------
                       ORCA ELECTRIC PROPERTIES CALCULATION
------------------------------------------------------------------------------

Dipole Moment Calculation                       ... on
Quadrupole Moment Calculation                   ... off
Polarizability Calculation                      ... off
GBWName                                         ... test_dummy_protonopt.gbw
Electron density file                           ... test_dummy_protonopt.scfp
The origin for moment calculation is the CENTER OF MASS  = (-3.401803, -3.784918  0.042832)

-------------
DIPOLE MOMENT
-------------
                                X             Y             Z
Electronic contribution:     -1.58184      -1.76163       0.12056
Nuclear contribution   :      1.81858       2.02510      -0.13989
                        -----------------------------------------
Total Dipole Moment    :      0.23674       0.26348      -0.01932
                        -----------------------------------------
Magnitude (a.u.)       :      0.35474
Magnitude (Debye)      :      0.90168



--------------------
Rotational spectrum 
--------------------
 
Rotational constants in cm-1:     0.072592     0.021243     0.018906 
Rotational constants in MHz :  2176.263818   636.837662   566.792014 

 Dipole components along the rotational axes: 
x,y,z [a.u.] :     0.001241    -0.000410     0.354738 
x,y,z [Debye]:     0.003155    -0.001043     0.901673 

 

Timings for individual modules:

Sum of individual times         ...      393.680 sec (=   6.561 min)
GTO integral calculation        ...        1.438 sec (=   0.024 min)   0.4 %
SCF iterations                  ...      270.468 sec (=   4.508 min)  68.7 %
SCF Gradient evaluation         ...      121.345 sec (=   2.022 min)  30.8 %
Geometry relaxation             ...        0.430 sec (=   0.007 min)   0.1 %
                             ****ORCA TERMINATED NORMALLY****
TOTAL RUN TIME: 0 days 0 hours 6 minutes 34 seconds 188 msec
