
                                 *****************
                                 * O   R   C   A *
                                 *****************

           --- An Ab Initio, DFT and Semiempirical electronic structure package ---

                  #######################################################
                  #                        -***-                        #
                  #          Department of theory and spectroscopy      #
                  #               Directorship: Frank Neese             #
                  #        Max Planck Institute fuer Kohlenforschung    #
                  #                Kaiser Wilhelm Platz 1               #
                  #                 D-45470 Muelheim/Ruhr               #
                  #                      Germany                        #
                  #                                                     #
                  #                  All rights reserved                #
                  #                        -***-                        #
                  #######################################################


                         Program Version 4.2.1 -  RELEASE  -


 With contributions from (in alphabetic order):
   Daniel Aravena         : Magnetic Suceptibility
   Michael Atanasov       : Ab Initio Ligand Field Theory (pilot matlab implementation)
   Alexander A. Auer      : GIAO ZORA, VPT2
   Ute Becker             : Parallelization
   Giovanni Bistoni       : ED, misc. LED, open-shell LED, HFLD
   Martin Brehm           : Molecular dynamics
   Dmytro Bykov           : SCF Hessian
   Vijay G. Chilkuri      : MRCI spin determinant printing, contributions to CSF-ICE
   Dipayan Datta          : RHF DLPNO-CCSD density
   Achintya Kumar Dutta   : EOM-CC, STEOM-CC
   Dmitry Ganyushin       : Spin-Orbit,Spin-Spin,Magnetic field MRCI
   Miquel Garcia          : C-PCM Hessian, Gaussian charge scheme
   Yang Guo               : DLPNO-NEVPT2, CIM, IAO-localization
   Andreas Hansen         : Spin unrestricted coupled pair/coupled cluster methods
   Benjamin Helmich-Paris : CASSCF linear response (MC-RPA)
   Lee Huntington         : MR-EOM, pCC
   Robert Izsak           : Overlap fitted RIJCOSX, COSX-SCS-MP3, EOM
   Christian Kollmar      : KDIIS, OOCD, Brueckner-CCSD(T), CCSD density
   Simone Kossmann        : Meta GGA functionals, TD-DFT gradient, OOMP2, MP2 Hessian
   Martin Krupicka        : AUTO-CI
   Lucas Lang             : DCDCAS
   Dagmar Lenk            : GEPOL surface, SMD
   Dimitrios Liakos       : Extrapolation schemes; Compound Job, initial MDCI parallelization
   Dimitrios Manganas     : Further ROCIS development; embedding schemes
   Dimitrios Pantazis     : SARC Basis sets
   Taras Petrenko         : DFT Hessian,TD-DFT gradient, ASA, ECA, R-Raman, ABS, FL, XAS/XES, NRVS
   Peter Pinski           : DLPNO-MP2, DLPNO-MP2 Gradient
   Christoph Reimann      : Effective Core Potentials
   Marius Retegan         : Local ZFS, SOC
   Christoph Riplinger    : Optimizer, TS searches, QM/MM, DLPNO-CCSD(T), (RO)-DLPNO pert. Triples
   Tobias Risthaus        : Range-separated hybrids, TD-DFT gradient, RPA, STAB
   Michael Roemelt        : Original ROCIS implementation
   Masaaki Saitow         : Open-shell DLPNO-CCSD energy and density
   Barbara Sandhoefer     : DKH picture change effects
   Avijit Sen             : IP-ROCIS
   Kantharuban Sivalingam : CASSCF convergence, NEVPT2, FIC-MRCI
   Bernardo de Souza      : ESD, SOC TD-DFT
   Georgi Stoychev        : AutoAux, RI-MP2 NMR
   Willem Van den Heuvel  : Paramagnetic NMR
   Boris Wezisla          : Elementary symmetry handling
   Frank Wennmohs         : Technical directorship


 We gratefully acknowledge several colleagues who have allowed us to
 interface, adapt or use parts of their codes:
   Stefan Grimme, W. Hujo, H. Kruse,             : VdW corrections, initial TS optimization,
                  C. Bannwarth                     DFT functionals, gCP, sTDA/sTD-DF
   Ed Valeev, F. Pavosevic, A. Kumar             : LibInt (2-el integral package), F12 methods
   Garnet Chan, S. Sharma, J. Yang, R. Olivares  : DMRG
   Ulf Ekstrom                                   : XCFun DFT Library
   Mihaly Kallay                                 : mrcc  (arbitrary order and MRCC methods)
   Andreas Klamt, Michael Diedenhofen            : otool_cosmo (COSMO solvation model)
   Jiri Pittner, Ondrej Demel                    : Mk-CCSD
   Frank Weinhold                                : gennbo (NPA and NBO analysis)
   Christopher J. Cramer and Donald G. Truhlar   : smd solvation model
   Lars Goerigk                                  : TD-DFT with DH, B97 family of functionals
   V. Asgeirsson, H. Jonsson                     : NEB implementation
   FAccTs GmbH                                   : IRC, NEB, NEB-TS, Multilevel, MM, QM/MM, CI optimization
   S Lehtola, MJT Oliveira, MAL Marques          : LibXC Library


 Your calculation uses the libint2 library for the computation of 2-el integrals
 For citations please refer to: http://libint.valeyev.net

 Your ORCA version has been built with support for libXC version: 4.2.3
 For citations please refer to: https://tddft.org/programs/libxc/

 This ORCA versions uses:
   CBLAS   interface :  Fast vector & matrix operations
   LAPACKE interface :  Fast linear algebra routines
   SCALAPACK package :  Parallel linear algebra routines


----- Orbital basis set information -----
Your calculation utilizes the basis: 6-31G*
   H-He, Li-Ne : W. J. Hehre, R. Ditchfield and J.A. Pople, J. Chem. Phys. 56, 2257 (1972).
                 Note: He and Ne are unpublished basis sets taken from the Gaussian program.
                 Note: Li and B from J. D. Dill and J. A. Pople, J. Chem. Phys. 62, 2921 (1975).
   Na - Ar     : M. M. Francl, W. J. Pietro, W. J. Hehre, J. S. Binkley, M. S. Gordon, 
                 D. J. DeFrees and J. A. Pople, J. Chem. Phys. 77, 3654 (1982).
   K - Zn      : V. A. Rassolov, J. A. Pople, M. A. Ratner, and T. L. Windus, J. Chem. Phys. 109, 1223 (1998).

================================================================================
                                        WARNINGS
                       Please study these warnings very carefully!
================================================================================


WARNING: Geometry Optimization
  ===> : Switching off AutoStart
         For restart on a previous wavefunction, please use MOREAD

INFO   : the flag for use of LIBINT has been found!

================================================================================
                                       INPUT FILE
================================================================================
NAME = test_dummy.inp
|  1> ! B3LYP OPT 6-31G*
|  2> %pal
|  3> 	nprocs 1
|  4> end
|  5> %geom
|  6> 	coordsys redundant_old
|  7> end
|  8> * xyz 0 1
|  9>   C     -3.452440    0.712200    0.112300
| 10>   C     -3.146900    0.051140    1.317720
| 11>   C     -2.852670   -1.307900    1.334290
| 12>   C     -2.850710   -2.064690    0.146350
| 13>   C     -1.750560   -3.060350   -0.028940
| 14>   C     -1.025270   -3.587410    1.061510
| 15>   C      0.359930   -3.723820    0.999750
| 16>   C      1.078790   -3.341450   -0.154950
| 17>   C      0.306000   -3.214710   -1.327120
| 18>   C     -1.075390   -3.072660   -1.265180
| 19>   C     -3.530490   -1.484270   -0.947070
| 20>   C     -3.824850   -0.121940   -0.964160
| 21>   H     -2.915890    0.629970    2.206500
| 22>   H     -2.408990   -1.717030    2.236330
| 23>   H     -1.518110   -3.748470    2.016950
| 24>   H      0.889060   -3.984550    1.912210
| 25>   H      0.786250   -3.012770   -2.278630
| 26>   H     -1.591470   -2.756600   -2.166300
| 27>   H     -3.697240   -2.061540   -1.853050
| 28>   H     -4.208860    0.314830   -1.882820
| 29>   H     -3.561650    1.791030    0.063153
| 30>   H      2.163754   -3.325239   -0.176792
| 31> 
| 32> **                         ****END OF INPUT****
================================================================================

                       *****************************
                       * Geometry Optimization Run *
                       *****************************

Geometry optimization settings:
Update method            Update   .... BFGS
Choice of coordinates    CoordSys .... Old Redundant Internals
Initial Hessian          InHess   .... Almoef's Model

Convergence Tolerances:
Energy Change            TolE     ....  5.0000e-06 Eh
Max. Gradient            TolMAXG  ....  3.0000e-04 Eh/bohr
RMS Gradient             TolRMSG  ....  1.0000e-04 Eh/bohr
Max. Displacement        TolMAXD  ....  4.0000e-03 bohr
RMS Displacement         TolRMSD  ....  2.0000e-03 bohr
Strict Convergence                ....  False
------------------------------------------------------------------------------
                        ORCA OPTIMIZATION COORDINATE SETUP
------------------------------------------------------------------------------

The optimization will be done in redundant internal coordinates
Making redundant internal coordinates   ... (old redundants) done
Evaluating the initial hessian          ...  (Almloef) done
Evaluating the coordinates              ...  done
Calculating the B-matrix                .... done
Calculating the G-matrix                .... done
Diagonalizing the G-matrix              .... done
Small eigenvalue found = 1.685e-02
The first mode is                       ....   61
The number of degrees of freedom        ....   60

    -----------------------------------------------------------------
                    Redundant Internal Coordinates


    -----------------------------------------------------------------
         Definition                    Initial Value    Approx d2E/dq
    -----------------------------------------------------------------
      1. B(C   1,C   0)                  1.4083         0.584110   
      2. B(C   2,C   1)                  1.3906         0.623365   
      3. B(C   3,C   2)                  1.4085         0.583696   
      4. B(C   4,C   3)                  1.4941         0.426208   
      5. B(C   5,C   4)                  1.4117         0.576906   
      6. B(C   6,C   5)                  1.3933         0.617336   
      7. B(C   7,C   6)                  1.4129         0.574376   
      8. B(C   8,C   7)                  1.4097         0.581180   
      9. B(C   9,C   4)                  1.4087         0.583423   
     10. B(C   9,C   8)                  1.3901         0.624670   
     11. B(C  10,C   3)                  1.4123         0.575679   
     12. B(C  11,C   0)                  1.4118         0.576661   
     13. B(C  11,C  10)                  1.3939         0.615969   
     14. B(H  12,C   1)                  1.0855         0.366084   
     15. B(H  13,C   2)                  1.0853         0.366347   
     16. B(H  14,C   5)                  1.0871         0.364012   
     17. B(H  15,C   6)                  1.0865         0.364723   
     18. B(H  16,C   8)                  1.0848         0.367045   
     19. B(H  17,C   9)                  1.0855         0.366140   
     20. B(H  18,C  10)                  1.0871         0.363920   
     21. B(H  19,C  11)                  1.0873         0.363722   
     22. B(H  20,C   0)                  1.0855         0.366161   
     23. B(H  21,C   7)                  1.0853         0.366365   
     24. A(C   2,C   1,C   0)          120.9863         0.429858   
     25. A(C   3,C   2,C   1)          121.0199         0.429803   
     26. A(C   4,C   3,C   2)          117.2592         0.401702   
     27. A(C   5,C   4,C   3)          122.4437         0.400874   
     28. A(C   6,C   5,C   4)          120.8709         0.428155   
     29. A(C   7,C   6,C   5)          121.0353         0.427817   
     30. A(C   8,C   7,C   6)          115.1486         0.423220   
     31. A(C   9,C   4,C   3)          117.4971         0.401668   
     32. A(C   9,C   4,C   5)          115.3647         0.423845   
     33. A(C   9,C   8,C   7)          121.1255         0.429631   
     34. A(C   8,C   9,C   4)          121.0853         0.429928   
     35. A(C  10,C   3,C   2)          115.5619         0.423719   
     36. A(C  10,C   3,C   4)          122.5105         0.400724   
     37. A(C  11,C   0,C   1)          115.6267         0.423902   
     38. A(C  11,C  10,C   3)          120.8518         0.427821   
     39. A(C  10,C  11,C   0)          120.8239         0.427952   
     40. A(H  12,C   1,C   0)          119.7801         0.350344   
     41. A(H  12,C   1,C   2)          117.7968         0.354220   
     42. A(H  13,C   2,C   1)          117.6975         0.354263   
     43. A(H  13,C   2,C   3)          119.8584         0.350345   
     44. A(H  14,C   5,C   4)          120.0859         0.349276   
     45. A(H  14,C   5,C   6)          118.3723         0.353297   
     46. A(H  15,C   6,C   5)          118.0628         0.353414   
     47. A(H  15,C   6,C   7)          120.2314         0.349133   
     48. A(H  16,C   8,C   7)          120.2240         0.350202   
     49. A(H  16,C   8,C   9)          117.3877         0.354503   
     50. A(H  17,C   9,C   4)          119.8765         0.350283   
     51. A(H  17,C   9,C   8)          117.7259         0.354355   
     52. A(H  18,C  10,C   3)          120.0536         0.349136   
     53. A(H  18,C  10,C  11)          118.4491         0.353150   
     54. A(H  19,C  11,C   0)          120.0027         0.349205   
     55. A(H  19,C  11,C  10)          118.5265         0.353117   
     56. A(H  20,C   0,C   1)          121.8104         0.350356   
     57. A(H  20,C   0,C  11)          121.7461         0.349598   
     58. A(H  21,C   7,C   6)          121.9455         0.349397   
     59. A(H  21,C   7,C   8)          122.0018         0.350092   
     60. D(C   2,C   1,C   0,C  11)     17.9880         0.023456   
     61. D(H  12,C   1,C   0,C  11)   -175.9898         0.023456   
     62. D(C   2,C   1,C   0,H  20)   -172.1956         0.023456   
     63. D(H  12,C   1,C   0,H  20)     -6.1734         0.023456   
     64. D(C   3,C   2,C   1,C   0)      0.0235         0.026907   
     65. D(C   3,C   2,C   1,H  12)   -166.2672         0.026907   
     66. D(H  13,C   2,C   1,C   0)    166.3835         0.026907   
     67. D(H  13,C   2,C   1,H  12)      0.0927         0.026907   
     68. D(C   4,C   3,C   2,C   1)    138.3919         0.023421   
     69. D(C  10,C   3,C   2,C   1)    -18.0472         0.023421   
     70. D(C   4,C   3,C   2,H  13)    -27.6768         0.023421   
     71. D(C  10,C   3,C   2,H  13)    175.8841         0.023421   
     72. D(C   5,C   4,C   3,C   2)     21.9400         0.012419   
     73. D(C   9,C   4,C   3,C   2)   -132.6326         0.012419   
     74. D(C   5,C   4,C   3,C  10)    176.6242         0.012419   
     75. D(C   9,C   4,C   3,C  10)     22.0516         0.012419   
     76. D(C   6,C   5,C   4,C   3)   -136.7075         0.022855   
     77. D(C   6,C   5,C   4,C   9)     18.3634         0.022855   
     78. D(H  14,C   5,C   4,C   3)     33.7527         0.022855   
     79. D(H  14,C   5,C   4,C   9)   -171.1764         0.022855   
     80. D(C   7,C   6,C   5,C   4)     -0.1055         0.026358   
     81. D(C   7,C   6,C   5,H  14)   -170.7254         0.026358   
     82. D(H  15,C   6,C   5,C   4)    170.5301         0.026358   
     83. D(H  15,C   6,C   5,H  14)     -0.0899         0.026358   
     84. D(C   8,C   7,C   6,C   5)    -18.3793         0.022646   
     85. D(C   8,C   7,C   6,H  15)    171.1868         0.022646   
     86. D(H  21,C   7,C   6,C   5)    172.3044         0.022646   
     87. D(H  21,C   7,C   6,H  15)      1.8705         0.022646   
     88. D(C   9,C   8,C   7,C   6)     18.6867         0.023210   
     89. D(H  16,C   8,C   7,C   6)   -174.4835         0.023210   
     90. D(C   9,C   8,C   7,H  21)   -172.0036         0.023210   
     91. D(H  16,C   8,C   7,H  21)     -5.1739         0.023210   
     92. D(C   8,C   9,C   4,C   3)    138.2415         0.023398   
     93. D(C   8,C   9,C   4,C   5)    -18.1172         0.023398   
     94. D(H  17,C   9,C   4,C   3)    -28.3804         0.023398   
     95. D(H  17,C   9,C   4,C   5)    175.2610         0.023398   
     96. D(C   4,C   9,C   8,C   7)     -0.4663         0.027027   
     97. D(C   4,C   9,C   8,H  16)   -167.6559         0.027027   
     98. D(H  17,C   9,C   8,C   7)    166.4337         0.027027   
     99. D(H  17,C   9,C   8,H  16)     -0.7559         0.027027   
    100. D(C  11,C  10,C   3,C   2)     18.0477         0.022753   
    101. D(C  11,C  10,C   3,C   4)   -137.0317         0.022753   
    102. D(H  18,C  10,C   3,C   2)   -171.3037         0.022753   
    103. D(H  18,C  10,C   3,C   4)     33.6169         0.022753   
    104. D(C  10,C  11,C   0,C   1)    -17.9232         0.022835   
    105. D(H  19,C  11,C   0,C   1)    171.4313         0.022835   
    106. D(C  10,C  11,C   0,H  20)    172.2532         0.022835   
    107. D(H  19,C  11,C   0,H  20)      1.6077         0.022835   
    108. D(C   0,C  11,C  10,C   3)     -0.0879         0.026234   
    109. D(C   0,C  11,C  10,H  18)   -170.8834         0.026234   
    110. D(H  19,C  11,C  10,C   3)    170.6928         0.026234   
    111. D(H  19,C  11,C  10,H  18)     -0.1026         0.026234   
    112. I(C   0,H  12,C   2,C   1)     11.7226         0.052056   
    113. I(C   1,H  20,C  11,C   0)      9.1663         0.053713   
    114. I(C   1,H  13,C   3,C   2)     11.9072         0.057141   
    115. I(C   2,C  10,C   4,C   3)    -22.3411         0.054471   
    116. I(C   3,C   9,C   5,C   4)    -20.8369         0.035847   
    117. I(C   4,H  14,C   6,C   5)      8.0416         0.053342   
    118. I(C   5,H  15,C   7,C   6)      8.1865         0.058863   
    119. I(C   6,H  21,C   8,C   7)     -9.6668         0.052114   
    120. I(C   7,H  16,C   9,C   8)     10.9414         0.052213   
    121. I(C   3,H  18,C  11,C  10)      7.8931         0.053249   
    -----------------------------------------------------------------

Number of atoms                         .... 22
Number of degrees of freedom            .... 121

         *************************************************************
         *                GEOMETRY OPTIMIZATION CYCLE   1            *
         *************************************************************
---------------------------------
CARTESIAN COORDINATES (ANGSTROEM)
---------------------------------
  C     -3.452440    0.712200    0.112300
  C     -3.146900    0.051140    1.317720
  C     -2.852670   -1.307900    1.334290
  C     -2.850710   -2.064690    0.146350
  C     -1.750560   -3.060350   -0.028940
  C     -1.025270   -3.587410    1.061510
  C      0.359930   -3.723820    0.999750
  C      1.078790   -3.341450   -0.154950
  C      0.306000   -3.214710   -1.327120
  C     -1.075390   -3.072660   -1.265180
  C     -3.530490   -1.484270   -0.947070
  C     -3.824850   -0.121940   -0.964160
  H     -2.915890    0.629970    2.206500
  H     -2.408990   -1.717030    2.236330
  H     -1.518110   -3.748470    2.016950
  H      0.889060   -3.984550    1.912210
  H      0.786250   -3.012770   -2.278630
  H     -1.591470   -2.756600   -2.166300
  H     -3.697240   -2.061540   -1.853050
  H     -4.208860    0.314830   -1.882820
  H     -3.561650    1.791030    0.063153
  H      2.163754   -3.325239   -0.176792

----------------------------
CARTESIAN COORDINATES (A.U.)
----------------------------
  NO LB      ZA    FRAG     MASS         X           Y           Z
   0 C     6.0000    0    12.011   -6.524166    1.345863    0.212216
   1 C     6.0000    0    12.011   -5.946779    0.096641    2.490130
   2 C     6.0000    0    12.011   -5.390765   -2.471573    2.521443
   3 C     6.0000    0    12.011   -5.387061   -3.901699    0.276561
   4 C     6.0000    0    12.011   -3.308079   -5.783223   -0.054689
   5 C     6.0000    0    12.011   -1.937480   -6.779222    2.005963
   6 C     6.0000    0    12.011    0.680169   -7.037000    1.889254
   7 C     6.0000    0    12.011    2.038618   -6.314425   -0.292813
   8 C     6.0000    0    12.011    0.578256   -6.074921   -2.507893
   9 C     6.0000    0    12.011   -2.032193   -5.806486   -2.390844
  10 C     6.0000    0    12.011   -6.671659   -2.804864   -1.789703
  11 C     6.0000    0    12.011   -7.227919   -0.230433   -1.821998
  12 H     1.0000    0     1.008   -5.510234    1.190471    4.169681
  13 H     1.0000    0     1.008   -4.552331   -3.244716    4.226051
  14 H     1.0000    0     1.008   -2.868812   -7.083582    3.811483
  15 H     1.0000    0     1.008    1.680080   -7.529708    3.613553
  16 H     1.0000    0     1.008    1.485797   -5.693310   -4.305987
  17 H     1.0000    0     1.008   -3.007442   -5.209219   -4.093714
  18 H     1.0000    0     1.008   -6.986771   -3.895746   -3.501757
  19 H     1.0000    0     1.008   -7.953593    0.594942   -3.558014
  20 H     1.0000    0     1.008   -6.730543    3.384556    0.119342
  21 H     1.0000    0     1.008    4.088902   -6.283791   -0.334088

--------------------------------
INTERNAL COORDINATES (ANGSTROEM)
--------------------------------
 C      0   0   0     0.000000000000     0.00000000     0.00000000
 C      1   0   0     1.408329645928     0.00000000     0.00000000
 C      2   1   0     1.390624168998   120.98634117     0.00000000
 C      3   2   1     1.408522768471   121.01986464     0.02353366
 C      4   3   2     1.494120290405   117.25915859   138.39187999
 C      5   4   3     1.411707841658   122.44365650    21.93998615
 C      6   5   4     1.393269904110   120.87089659   223.29247592
 C      7   6   5     1.412904316116   121.03525948   359.89454711
 C      8   7   6     1.409698521174   115.14864785   341.62065206
 C      9   8   7     1.390055070204   121.12548647    18.68673622
 C      4   3   2     1.412287336628   115.56190921   341.95278085
 C     11   4   3     1.393873346685   120.85180166    18.04769644
 H      2   1   3     1.085513554683   119.78014562   166.02219113
 H      3   2   1     1.085318138105   117.69754836   166.38345461
 H      6   5   4     1.087058960130   120.08587577    33.75267165
 H      7   6   5     1.086527469234   118.06282786   170.53005623
 H      9   8   7     1.084800030513   120.22402909   185.51645100
 H     10   9   8     1.085472129721   117.72592139   166.43370812
 H     11   4   3     1.087127396306   120.05356758   188.69630624
 H     12  11   4     1.087275452036   118.52651487   170.69283044
 H      1   2   3     1.085456779706   121.81035831   187.80444680
 H      8   7   6     1.085304911433   121.94545426   172.30439097

---------------------------
INTERNAL COORDINATES (A.U.)
---------------------------
 C      0   0   0     0.000000000000     0.00000000     0.00000000
 C      1   0   0     2.661357337086     0.00000000     0.00000000
 C      2   1   0     2.627898834617   120.98634117     0.00000000
 C      3   2   1     2.661722285802   121.01986464     0.02353366
 C      4   3   2     2.823478160000   117.25915859   138.39187999
 C      5   4   3     2.667741201844   122.44365650    21.93998615
 C      6   5   4     2.632898549404   120.87089659   223.29247592
 C      7   6   5     2.670002210895   121.03525948   359.89454711
 C      8   7   6     2.663944136413   115.14864785   341.62065206
 C      9   8   7     2.626823393754   121.12548647    18.68673622
 C      4   3   2     2.668836288632   115.56190921   341.95278085
 C     11   4   3     2.634038890608   120.85180166    18.04769644
 H      2   1   3     2.051323333010   119.78014562   166.02219113
 H      3   2   1     2.050954049196   117.69754836   166.38345461
 H      6   5   4     2.054243726072   120.08587577    33.75267165
 H      7   6   5     2.053239353835   118.06282786   170.53005623
 H      9   8   7     2.049974967738   120.22402909   185.51645100
 H     10   9   8     2.051245051176   117.72592139   166.43370812
 H     11   4   3     2.054373051702   120.05356758   188.69630624
 H     12  11   4     2.054652836483   118.52651487   170.69283044
 H      1   2   3     2.051216043852   121.81035831   187.80444680
 H      8   7   6     2.050929054408   121.94545426   172.30439097

---------------------
BASIS SET INFORMATION
---------------------
There are 2 groups of distinct atoms

 Group   1 Type C   : 10s4p1d contracted to 3s2p1d pattern {631/31/1}
 Group   2 Type H   : 4s contracted to 2s pattern {31}

Atom   0C    basis set group =>   1
Atom   1C    basis set group =>   1
Atom   2C    basis set group =>   1
Atom   3C    basis set group =>   1
Atom   4C    basis set group =>   1
Atom   5C    basis set group =>   1
Atom   6C    basis set group =>   1
Atom   7C    basis set group =>   1
Atom   8C    basis set group =>   1
Atom   9C    basis set group =>   1
Atom  10C    basis set group =>   1
Atom  11C    basis set group =>   1
Atom  12H    basis set group =>   2
Atom  13H    basis set group =>   2
Atom  14H    basis set group =>   2
Atom  15H    basis set group =>   2
Atom  16H    basis set group =>   2
Atom  17H    basis set group =>   2
Atom  18H    basis set group =>   2
Atom  19H    basis set group =>   2
Atom  20H    basis set group =>   2
Atom  21H    basis set group =>   2
------------------------------------------------------------------------------
                           ORCA GTO INTEGRAL CALCULATION
------------------------------------------------------------------------------

                         BASIS SET STATISTICS AND STARTUP INFO

 # of primitive gaussian shells          ...  220
 # of primitive gaussian functions       ...  364
 # of contracted shells                  ...   92
 # of contracted basis functions         ...  188
 Highest angular momentum                ...    2
 Maximum contraction depth               ...    6
 Integral package used                   ... LIBINT
 Integral threshhold            Thresh   ...  2.500e-11
 Primitive cut-off              TCut     ...  2.500e-12


------------------------------ INTEGRAL EVALUATION ----------------------------


 * One electron integrals 
 Pre-screening matrix                    ... done
 Shell pair data                         ... done (   0.001 sec)

-------------------------------------------------------------------------------
                                 ORCA SCF
-------------------------------------------------------------------------------

------------
SCF SETTINGS
------------
Hamiltonian:
 Density Functional     Method          .... DFT(GTOs)
 Exchange Functional    Exchange        .... B88
   X-Alpha parameter    XAlpha          ....  0.666667
   Becke's b parameter  XBeta           ....  0.004200
 Correlation Functional Correlation     .... LYP
 LDA part of GGA corr.  LDAOpt          .... VWN-5
 Gradients option       PostSCFGGA      .... off
 Hybrid DFT is turned on
   Fraction HF Exchange ScalHFX         ....  0.200000
   Scaling of DF-GGA-X  ScalDFX         ....  0.720000
   Scaling of DF-GGA-C  ScalDFC         ....  0.810000
   Scaling of DF-LDA-C  ScalLDAC        ....  1.000000
   Perturbative correction              ....  0.000000
   Density functional embedding theory  .... OFF
   NL short-range parameter             ....  4.800000


General Settings:
 Integral files         IntName         .... test_dummy
 Hartree-Fock type      HFTyp           .... RHF
 Total Charge           Charge          ....    0
 Multiplicity           Mult            ....    1
 Number of Electrons    NEL             ....   82
 Basis Dimension        Dim             ....  188
 Nuclear Repulsion      ENuc            ....    607.4329666667 Eh

Convergence Acceleration:
 DIIS                   CNVDIIS         .... on
   Start iteration      DIISMaxIt       ....    12
   Startup error        DIISStart       ....  0.200000
   # of expansion vecs  DIISMaxEq       ....     5
   Bias factor          DIISBfac        ....   1.050
   Max. coefficient     DIISMaxC        ....  10.000
 Newton-Raphson         CNVNR           .... off
 SOSCF                  CNVSOSCF        .... on
   Start iteration      SOSCFMaxIt      ....   150
   Startup grad/error   SOSCFStart      ....  0.003300
 Level Shifting         CNVShift        .... on
   Level shift para.    LevelShift      ....    0.2500
   Turn off err/grad.   ShiftErr        ....    0.0010
 Zerner damping         CNVZerner       .... off
 Static damping         CNVDamp         .... on
   Fraction old density DampFac         ....    0.7000
   Max. Damping (<1)    DampMax         ....    0.9800
   Min. Damping (>=0)   DampMin         ....    0.0000
   Turn off err/grad.   DampErr         ....    0.1000
 Fernandez-Rico         CNVRico         .... off

SCF Procedure:
 Maximum # iterations   MaxIter         ....   125
 SCF integral mode      SCFMode         .... Direct
   Integral package                     .... LIBINT
 Reset frequency        DirectResetFreq ....    20
 Integral Threshold     Thresh          ....  2.500e-11 Eh
 Primitive CutOff       TCut            ....  2.500e-12 Eh

Convergence Tolerance:
 Convergence Check Mode ConvCheckMode   .... Total+1el-Energy
 Convergence forced     ConvForced      .... 0
 Energy Change          TolE            ....  1.000e-08 Eh
 1-El. energy change                    ....  1.000e-05 Eh
 Orbital Gradient       TolG            ....  1.000e-05
 Orbital Rotation angle TolX            ....  1.000e-05
 DIIS Error             TolErr          ....  5.000e-07


Diagonalization of the overlap matrix:
Smallest eigenvalue                        ... 6.164e-04
Time for diagonalization                   ...    0.004 sec
Threshold for overlap eigenvalues          ... 1.000e-08
Number of eigenvalues below threshold      ... 0
Time for construction of square roots      ...    0.002 sec
Total time needed                          ...    0.007 sec

-------------------
DFT GRID GENERATION
-------------------

General Integration Accuracy     IntAcc      ...  4.340
Radial Grid Type                 RadialGrid  ... Gauss-Chebyshev
Angular Grid (max. acc.)         AngularGrid ... Lebedev-110
Angular grid pruning method      GridPruning ... 3 (G Style)
Weight generation scheme         WeightScheme... Becke
Basis function cutoff            BFCut       ...    1.0000e-11
Integration weight cutoff        WCut        ...    1.0000e-14
Grids for H and He will be reduced by one unit

# of grid points (after initial pruning)     ...  27812 (   0.0 sec)
# of grid points (after weights+screening)   ...  25337 (   0.1 sec)
nearest neighbour list constructed           ...    0.0 sec
Grid point re-assignment to atoms done       ...    0.0 sec
Grid point division into batches done        ...    0.0 sec
Reduced shell lists constructed in    0.2 sec

Total number of grid points                  ...    25337
Total number of batches                      ...      407
Average number of points per batch           ...       62
Average number of grid points per atom       ...     1152
Average number of shells per batch           ...    59.37 (64.53%)
Average number of basis functions per batch  ...   122.78 (65.31%)
Average number of large shells per batch     ...    43.24 (72.83%)
Average number of large basis fcns per batch ...    90.61 (73.80%)
Maximum spatial batch extension              ...  25.60, 20.31, 20.07 au
Average spatial batch extension              ...   3.86,  3.72,  3.66 au

Time for grid setup =    0.311 sec

------------------------------
INITIAL GUESS: MODEL POTENTIAL
------------------------------
Loading Hartree-Fock densities                     ... done
Calculating cut-offs                               ... done
Setting up the integral package                    ... done
Initializing the effective Hamiltonian             ... done
Starting the Coulomb interaction                   ... done (   0.2 sec)
Reading the grid                                   ... done
Mapping shells                                     ... done
Starting the XC term evaluation                    ... done (   0.3 sec)
  promolecular density results
     # of electrons  =     82.001742090
     EX              =    -64.628999193
     EC              =     -2.725098290
     EX+EC           =    -67.354097483
Transforming the Hamiltonian                       ... done (   0.0 sec)
Diagonalizing the Hamiltonian                      ... done (   0.0 sec)
Back transforming the eigenvectors                 ... done (   0.0 sec)
Now organizing SCF variables                       ... done
                      ------------------
                      INITIAL GUESS DONE (   0.8 sec)
                      ------------------
--------------
SCF ITERATIONS
--------------
ITER       Energy         Delta-E        Max-DP      RMS-DP      [F,P]     Damp
               ***  Starting incremental Fock matrix formation  ***
  0   -462.6926762655   0.000000000000 0.04013178  0.00196094  0.1153276 0.7000
  1   -462.8026036755  -0.109927410025 0.03071087  0.00146694  0.0636229 0.7000
                               ***Turning on DIIS***
  2   -462.8525507160  -0.049947040494 0.05496025  0.00252725  0.0287733 0.0000
  3   -462.9239277027  -0.071376986719 0.02352816  0.00108290  0.0380046 0.0000
  4   -462.9415432440  -0.017615541237 0.00929422  0.00030617  0.0073464 0.0000
                      *** Initiating the SOSCF procedure ***
                           *** Shutting down DIIS ***
                      *** Re-Reading the Fockian *** 
                      *** Removing any level shift *** 
ITER      Energy       Delta-E        Grad      Rot      Max-DP    RMS-DP
  5   -462.94243690  -0.0008936584  0.000804  0.000804  0.002798  0.000096
               *** Restarting incremental Fock matrix formation ***
  6   -462.94247652  -0.0000396154  0.000466  0.002071  0.001572  0.000062
  7   -462.94246496   0.0000115539  0.001002  0.001416  0.001015  0.000035
  8   -462.94248193  -0.0000169679  0.000052  0.000159  0.000261  0.000010
  9   -462.94248182   0.0000001124  0.000073  0.000091  0.000154  0.000005
 10   -462.94248210  -0.0000002843  0.000010  0.000024  0.000039  0.000001
 11   -462.94248210   0.0000000014  0.000013  0.000016  0.000020  0.000001
                  ***Gradient check signals convergence***
              ***Rediagonalizing the Fockian in SOSCF/NRSCF***

               *****************************************************
               *                     SUCCESS                       *
               *           SCF CONVERGED AFTER  12 CYCLES          *
               *****************************************************

Setting up the final grid:

General Integration Accuracy     IntAcc      ...  4.670
Radial Grid Type                 RadialGrid  ... Gauss-Chebyshev
Angular Grid (max. acc.)         AngularGrid ... Lebedev-302
Angular grid pruning method      GridPruning ... 3 (G Style)
Weight generation scheme         WeightScheme... Becke
Basis function cutoff            BFCut       ...    1.0000e-11
Integration weight cutoff        WCut        ...    1.0000e-14
Grids for H and He will be reduced by one unit

# of grid points (after initial pruning)     ... 108484 (   0.0 sec)
# of grid points (after weights+screening)   ...  97087 (   0.3 sec)
nearest neighbour list constructed           ...    0.0 sec
Grid point re-assignment to atoms done       ...    0.0 sec
Grid point division into batches done        ...    0.3 sec
Reduced shell lists constructed in    0.9 sec

Total number of grid points                  ...    97087
Total number of batches                      ...     1528
Average number of points per batch           ...       63
Average number of grid points per atom       ...     4413
Average number of shells per batch           ...    53.85 (58.53%)
Average number of basis functions per batch  ...   111.04 (59.06%)
Average number of large shells per batch     ...    38.38 (71.27%)
Average number of large basis fcns per batch ...    80.18 (72.20%)
Maximum spatial batch extension              ...  18.21, 23.03, 19.42 au
Average spatial batch extension              ...   2.42,  2.45,  2.42 au

Final grid set up in    1.3 sec
Final integration                            ... done (   1.0 sec)
Change in XC energy                          ...    -0.000416615
Integrated number of electrons               ...    82.000065852
Previous integrated no of electrons          ...    82.001827020

----------------
TOTAL SCF ENERGY
----------------

Total Energy       :         -462.94289872 Eh          -12597.31671 eV

Components:
Nuclear Repulsion  :          607.43296667 Eh           16529.09135 eV
Electronic Energy  :        -1070.37586539 Eh          -29126.40806 eV
One Electron Energy:        -1828.42983947 Eh          -49754.10538 eV
Two Electron Energy:          758.05397408 Eh           20627.69733 eV

Virial components:
Potential Energy   :         -923.07530064 Eh          -25118.15591 eV
Kinetic Energy     :          460.13240191 Eh           12520.83920 eV
Virial Ratio       :            2.00610802


DFT components:
N(Alpha)           :       41.000032925937 electrons
N(Beta)            :       41.000032925937 electrons
N(Total)           :       82.000065851874 electrons
E(X)               :      -52.204978451069 Eh       
E(C)               :       -3.221515005083 Eh       
E(XC)              :      -55.426493456152 Eh       
DFET-embed. en.    :        0.000000000000 Eh       

---------------
SCF CONVERGENCE
---------------

  Last Energy change         ...   -5.8745e-09  Tolerance :   1.0000e-08
  Last MAX-Density change    ...    6.2980e-06  Tolerance :   1.0000e-07
  Last RMS-Density change    ...    2.1570e-07  Tolerance :   5.0000e-09
  Last Orbital Gradient      ...    1.5709e-06  Tolerance :   1.0000e-05
  Last Orbital Rotation      ...    6.5556e-06  Tolerance :   1.0000e-05

             **** THE GBW FILE WAS UPDATED (test_dummy.gbw) ****
             **** DENSITY FILE WAS UPDATED (test_dummy.scfp) ****
             **** ENERGY FILE WAS UPDATED (test_dummy.en.tmp) ****
             **** THE GBW FILE WAS UPDATED (test_dummy.gbw) ****
             **** DENSITY FILE WAS UPDATED (test_dummy.scfp) ****
----------------
ORBITAL ENERGIES
----------------

  NO   OCC          E(Eh)            E(eV) 
   0   2.0000     -10.194354      -277.4025 
   1   2.0000     -10.194094      -277.3954 
   2   2.0000     -10.181025      -277.0398 
   3   2.0000     -10.180985      -277.0387 
   4   2.0000     -10.180572      -277.0275 
   5   2.0000     -10.180175      -277.0166 
   6   2.0000     -10.179493      -276.9981 
   7   2.0000     -10.179446      -276.9968 
   8   2.0000     -10.178074      -276.9595 
   9   2.0000     -10.177702      -276.9494 
  10   2.0000     -10.177512      -276.9442 
  11   2.0000     -10.177403      -276.9412 
  12   2.0000      -0.861136       -23.4327 
  13   2.0000      -0.835867       -22.7451 
  14   2.0000      -0.765717       -20.8362 
  15   2.0000      -0.742724       -20.2105 
  16   2.0000      -0.732959       -19.9448 
  17   2.0000      -0.711275       -19.3548 
  18   2.0000      -0.617702       -16.8085 
  19   2.0000      -0.607428       -16.5290 
  20   2.0000      -0.576390       -15.6844 
  21   2.0000      -0.572725       -15.5846 
  22   2.0000      -0.523351       -14.2411 
  23   2.0000      -0.493356       -13.4249 
  24   2.0000      -0.470456       -12.8018 
  25   2.0000      -0.450943       -12.2708 
  26   2.0000      -0.432378       -11.7656 
  27   2.0000      -0.419979       -11.4282 
  28   2.0000      -0.416553       -11.3350 
  29   2.0000      -0.416154       -11.3241 
  30   2.0000      -0.405982       -11.0473 
  31   2.0000      -0.377779       -10.2799 
  32   2.0000      -0.369305       -10.0493 
  33   2.0000      -0.342322        -9.3150 
  34   2.0000      -0.339268        -9.2319 
  35   2.0000      -0.330267        -8.9870 
  36   2.0000      -0.320655        -8.7255 
  37   2.0000      -0.266297        -7.2463 
  38   2.0000      -0.247166        -6.7257 
  39   2.0000      -0.238425        -6.4879 
  40   2.0000      -0.203205        -5.5295 
  41   0.0000      -0.034659        -0.9431 
  42   0.0000      -0.004735        -0.1288 
  43   0.0000       0.017989         0.4895 
  44   0.0000       0.021581         0.5872 
  45   0.0000       0.093734         2.5506 
  46   0.0000       0.104814         2.8521 
  47   0.0000       0.126914         3.4535 
  48   0.0000       0.128076         3.4851 
  49   0.0000       0.143200         3.8967 
  50   0.0000       0.150941         4.1073 
  51   0.0000       0.159618         4.3434 
  52   0.0000       0.174722         4.7544 
  53   0.0000       0.183141         4.9835 
  54   0.0000       0.187488         5.1018 
  55   0.0000       0.218349         5.9416 
  56   0.0000       0.235213         6.4005 
  57   0.0000       0.274728         7.4757 
  58   0.0000       0.275918         7.5081 
  59   0.0000       0.290725         7.9110 
  60   0.0000       0.299921         8.1613 
  61   0.0000       0.310065         8.4373 
  62   0.0000       0.326709         8.8902 
  63   0.0000       0.363650         9.8954 
  64   0.0000       0.383100        10.4247 
  65   0.0000       0.386020        10.5041 
  66   0.0000       0.454969        12.3803 
  67   0.0000       0.505311        13.7502 
  68   0.0000       0.525443        14.2980 
  69   0.0000       0.527608        14.3570 
  70   0.0000       0.530669        14.4402 
  71   0.0000       0.538349        14.6492 
  72   0.0000       0.549692        14.9579 
  73   0.0000       0.555078        15.1044 
  74   0.0000       0.575879        15.6705 
  75   0.0000       0.591722        16.1016 
  76   0.0000       0.595973        16.2173 
  77   0.0000       0.600569        16.3423 
  78   0.0000       0.605982        16.4896 
  79   0.0000       0.607679        16.5358 
  80   0.0000       0.613046        16.6818 
  81   0.0000       0.617967        16.8157 
  82   0.0000       0.619484        16.8570 
  83   0.0000       0.621937        16.9238 
  84   0.0000       0.631710        17.1897 
  85   0.0000       0.640572        17.4308 
  86   0.0000       0.641016        17.4429 
  87   0.0000       0.653227        17.7752 
  88   0.0000       0.673118        18.3165 
  89   0.0000       0.686324        18.6758 
  90   0.0000       0.687638        18.7116 
  91   0.0000       0.705802        19.2058 
  92   0.0000       0.742695        20.2098 
  93   0.0000       0.768614        20.9150 
  94   0.0000       0.828303        22.5393 
  95   0.0000       0.832637        22.6572 
  96   0.0000       0.833801        22.6889 
  97   0.0000       0.845704        23.0128 
  98   0.0000       0.849204        23.1080 
  99   0.0000       0.854810        23.2606 
 100   0.0000       0.870212        23.6797 
 101   0.0000       0.882397        24.0113 
 102   0.0000       0.906196        24.6589 
 103   0.0000       0.924641        25.1608 
 104   0.0000       0.933366        25.3982 
 105   0.0000       0.934596        25.4317 
 106   0.0000       0.937498        25.5106 
 107   0.0000       0.947863        25.7927 
 108   0.0000       0.950471        25.8636 
 109   0.0000       1.007107        27.4048 
 110   0.0000       1.015320        27.6283 
 111   0.0000       1.029243        28.0071 
 112   0.0000       1.031268        28.0622 
 113   0.0000       1.055144        28.7119 
 114   0.0000       1.065408        28.9912 
 115   0.0000       1.097061        29.8525 
 116   0.0000       1.143061        31.1043 
 117   0.0000       1.154964        31.4282 
 118   0.0000       1.170917        31.8623 
 119   0.0000       1.184504        32.2320 
 120   0.0000       1.186412        32.2839 
 121   0.0000       1.235502        33.6197 
 122   0.0000       1.267663        34.4949 
 123   0.0000       1.299925        35.3728 
 124   0.0000       1.366465        37.1834 
 125   0.0000       1.372664        37.3521 
 126   0.0000       1.402819        38.1726 
 127   0.0000       1.403571        38.1931 
 128   0.0000       1.468248        39.9531 
 129   0.0000       1.491248        40.5789 
 130   0.0000       1.496085        40.7106 
 131   0.0000       1.507974        41.0341 
 132   0.0000       1.519110        41.3371 
 133   0.0000       1.523641        41.4604 
 134   0.0000       1.578318        42.9482 
 135   0.0000       1.607318        43.7373 
 136   0.0000       1.630734        44.3745 
 137   0.0000       1.678452        45.6730 
 138   0.0000       1.705889        46.4196 
 139   0.0000       1.775677        48.3186 
 140   0.0000       1.797017        48.8993 
 141   0.0000       1.836224        49.9662 
 142   0.0000       1.842427        50.1350 
 143   0.0000       1.862753        50.6881 
 144   0.0000       1.890100        51.4322 
 145   0.0000       1.902341        51.7653 
 146   0.0000       1.973267        53.6953 
 147   0.0000       1.987581        54.0848 
 148   0.0000       1.999972        54.4220 
 149   0.0000       2.001519        54.4641 
 150   0.0000       2.030351        55.2487 
 151   0.0000       2.032485        55.3067 
 152   0.0000       2.090735        56.8918 
 153   0.0000       2.091440        56.9110 
 154   0.0000       2.106361        57.3170 
 155   0.0000       2.124377        57.8072 
 156   0.0000       2.144412        58.3524 
 157   0.0000       2.173571        59.1459 
 158   0.0000       2.205002        60.0012 
 159   0.0000       2.208339        60.0920 
 160   0.0000       2.221465        60.4491 
 161   0.0000       2.256585        61.4048 
 162   0.0000       2.291032        62.3421 
 163   0.0000       2.307415        62.7880 
 164   0.0000       2.356870        64.1337 
 165   0.0000       2.377124        64.6848 
 166   0.0000       2.388004        64.9809 
 167   0.0000       2.455016        66.8044 
 168   0.0000       2.500309        68.0369 
 169   0.0000       2.545424        69.2645 
 170   0.0000       2.571334        69.9695 
 171   0.0000       2.588721        70.4427 
 172   0.0000       2.596333        70.6498 
 173   0.0000       2.607451        70.9523 
 174   0.0000       2.644032        71.9478 
 175   0.0000       2.661466        72.4222 
 176   0.0000       2.691467        73.2386 
 177   0.0000       2.728040        74.2337 
 178   0.0000       2.749287        74.8119 
 179   0.0000       2.755157        74.9716 
 180   0.0000       2.783124        75.7327 
 181   0.0000       2.789419        75.9040 
 182   0.0000       2.835276        77.1518 
 183   0.0000       2.868508        78.0561 
 184   0.0000       2.977115        81.0114 
 185   0.0000       3.156046        85.8804 
 186   0.0000       3.278619        89.2158 
 187   0.0000       3.394441        92.3674 

                    ********************************
                    * MULLIKEN POPULATION ANALYSIS *
                    ********************************

-----------------------
MULLIKEN ATOMIC CHARGES
-----------------------
   0 C :   -0.122526
   1 C :   -0.131877
   2 C :   -0.160310
   3 C :    0.083207
   4 C :    0.083232
   5 C :   -0.184375
   6 C :   -0.132358
   7 C :   -0.123916
   8 C :   -0.130571
   9 C :   -0.159661
  10 C :   -0.184910
  11 C :   -0.130903
  12 H :    0.127764
  13 H :    0.126993
  14 H :    0.131179
  15 H :    0.126416
  16 H :    0.125996
  17 H :    0.127584
  18 H :    0.132435
  19 H :    0.125375
  20 H :    0.135145
  21 H :    0.136080
Sum of atomic charges:    0.0000000

--------------------------------
MULLIKEN REDUCED ORBITAL CHARGES
--------------------------------
  0 C s       :     3.185540  s :     3.185540
      pz      :     0.942773  p :     2.901585
      px      :     0.988466
      py      :     0.970346
      dz2     :     0.009957  d :     0.035401
      dxz     :     0.005413
      dyz     :     0.009576
      dx2y2   :     0.007304
      dxy     :     0.003150
  1 C s       :     3.192591  s :     3.192591
      pz      :     0.970663  p :     2.902582
      px      :     0.986089
      py      :     0.945830
      dz2     :     0.008508  d :     0.036703
      dxz     :     0.003896
      dyz     :     0.013317
      dx2y2   :     0.005280
      dxy     :     0.005703
  2 C s       :     3.188340  s :     3.188340
      pz      :     0.977186  p :     2.935667
      px      :     0.988169
      py      :     0.970311
      dz2     :     0.008598  d :     0.036304
      dxz     :     0.005548
      dyz     :     0.011413
      dx2y2   :     0.004954
      dxy     :     0.005791
  3 C s       :     3.147731  s :     3.147731
      pz      :     0.874963  p :     2.727347
      px      :     0.926449
      py      :     0.925934
      dz2     :     0.009949  d :     0.041715
      dxz     :     0.008380
      dyz     :     0.010045
      dx2y2   :     0.006387
      dxy     :     0.006954
  4 C s       :     3.148244  s :     3.148244
      pz      :     0.869279  p :     2.726768
      px      :     0.918927
      py      :     0.938562
      dz2     :     0.010145  d :     0.041756
      dxz     :     0.010990
      dyz     :     0.007896
      dx2y2   :     0.005869
      dxy     :     0.006856
  5 C s       :     3.193899  s :     3.193899
      pz      :     0.983726  p :     2.954707
      px      :     0.966492
      py      :     1.004489
      dz2     :     0.008812  d :     0.035769
      dxz     :     0.012335
      dyz     :     0.003398
      dx2y2   :     0.005479
      dxy     :     0.005745
  6 C s       :     3.196666  s :     3.196666
      pz      :     0.958261  p :     2.899216
      px      :     0.945853
      py      :     0.995103
      dz2     :     0.008654  d :     0.036476
      dxz     :     0.012259
      dyz     :     0.003826
      dx2y2   :     0.005280
      dxy     :     0.006457
  7 C s       :     3.187952  s :     3.187952
      pz      :     0.939631  p :     2.900633
      px      :     0.964151
      py      :     0.996851
      dz2     :     0.009996  d :     0.035331
      dxz     :     0.009770
      dyz     :     0.005649
      dx2y2   :     0.007366
      dxy     :     0.002550
  8 C s       :     3.193254  s :     3.193254
      pz      :     0.970731  p :     2.900612
      px      :     0.941843
      py      :     0.988039
      dz2     :     0.009600  d :     0.036704
      dxz     :     0.012678
      dyz     :     0.003497
      dx2y2   :     0.005146
      dxy     :     0.005784
  9 C s       :     3.187050  s :     3.187050
      pz      :     0.973586  p :     2.936287
      px      :     0.969671
      py      :     0.993029
      dz2     :     0.008911  d :     0.036324
      dxz     :     0.012898
      dyz     :     0.004359
      dx2y2   :     0.004657
      dxy     :     0.005499
 10 C s       :     3.195321  s :     3.195321
      pz      :     0.985373  p :     2.953877
      px      :     0.999542
      py      :     0.968962
      dz2     :     0.007683  d :     0.035712
      dxz     :     0.003983
      dyz     :     0.012412
      dx2y2   :     0.005906
      dxy     :     0.005729
 11 C s       :     3.196690  s :     3.196690
      pz      :     0.961700  p :     2.897795
      px      :     0.997979
      py      :     0.938116
      dz2     :     0.008332  d :     0.036418
      dxz     :     0.004530
      dyz     :     0.010971
      dx2y2   :     0.005523
      dxy     :     0.007061
 12 H s       :     0.872236  s :     0.872236
 13 H s       :     0.873007  s :     0.873007
 14 H s       :     0.868821  s :     0.868821
 15 H s       :     0.873584  s :     0.873584
 16 H s       :     0.874004  s :     0.874004
 17 H s       :     0.872416  s :     0.872416
 18 H s       :     0.867565  s :     0.867565
 19 H s       :     0.874625  s :     0.874625
 20 H s       :     0.864855  s :     0.864855
 21 H s       :     0.863920  s :     0.863920


                     *******************************
                     * LOEWDIN POPULATION ANALYSIS *
                     *******************************

----------------------
LOEWDIN ATOMIC CHARGES
----------------------
   0 C :   -0.136477
   1 C :   -0.127962
   2 C :   -0.123058
   3 C :   -0.011008
   4 C :   -0.010834
   5 C :   -0.132925
   6 C :   -0.126202
   7 C :   -0.136806
   8 C :   -0.126923
   9 C :   -0.124029
  10 C :   -0.132621
  11 C :   -0.126176
  12 H :    0.130808
  13 H :    0.132279
  14 H :    0.130625
  15 H :    0.130118
  16 H :    0.130224
  17 H :    0.132241
  18 H :    0.130953
  19 H :    0.129976
  20 H :    0.133661
  21 H :    0.134135

-------------------------------
LOEWDIN REDUCED ORBITAL CHARGES
-------------------------------
  0 C s       :     2.926274  s :     2.926274
      pz      :     1.060991  p :     3.128288
      px      :     0.995745
      py      :     1.071552
      dz2     :     0.025189  d :     0.081915
      dxz     :     0.012480
      dyz     :     0.025314
      dx2y2   :     0.012920
      dxy     :     0.006012
  1 C s       :     2.920485  s :     2.920485
      pz      :     1.065007  p :     3.121360
      px      :     0.988975
      py      :     1.067378
      dz2     :     0.020269  d :     0.086117
      dxz     :     0.007341
      dyz     :     0.032515
      dx2y2   :     0.012501
      dxy     :     0.013491
  2 C s       :     2.918599  s :     2.918599
      pz      :     1.058019  p :     3.119629
      px      :     0.998151
      py      :     1.063459
      dz2     :     0.020553  d :     0.084830
      dxz     :     0.010487
      dyz     :     0.028399
      dx2y2   :     0.013543
      dxy     :     0.011847
  3 C s       :     2.876868  s :     2.876868
      pz      :     1.054366  p :     3.031781
      px      :     0.981387
      py      :     0.996028
      dz2     :     0.026772  d :     0.102359
      dxz     :     0.020266
      dyz     :     0.026790
      dx2y2   :     0.012786
      dxy     :     0.015746
  4 C s       :     2.876845  s :     2.876845
      pz      :     1.060011  p :     3.031550
      px      :     0.999429
      py      :     0.972111
      dz2     :     0.027855  d :     0.102439
      dxz     :     0.029596
      dyz     :     0.018214
      dx2y2   :     0.011241
      dxy     :     0.015534
  5 C s       :     2.917819  s :     2.917819
      pz      :     1.055599  p :     3.131201
      px      :     1.065452
      py      :     1.010150
      dz2     :     0.020213  d :     0.083905
      dxz     :     0.029500
      dyz     :     0.007111
      dx2y2   :     0.014483
      dxy     :     0.012598
  6 C s       :     2.922326  s :     2.922326
      pz      :     1.059432  p :     3.118605
      px      :     1.068737
      py      :     0.990436
      dz2     :     0.019770  d :     0.085271
      dxz     :     0.030388
      dyz     :     0.007390
      dx2y2   :     0.013261
      dxy     :     0.014462
  7 C s       :     2.926954  s :     2.926954
      pz      :     1.063111  p :     3.128262
      px      :     1.070855
      py      :     0.994296
      dz2     :     0.025548  d :     0.081590
      dxz     :     0.025912
      dyz     :     0.012810
      dx2y2   :     0.012720
      dxy     :     0.004601
  8 C s       :     2.920509  s :     2.920509
      pz      :     1.067307  p :     3.120309
      px      :     1.069336
      py      :     0.983667
      dz2     :     0.022031  d :     0.086106
      dxz     :     0.031861
      dyz     :     0.006274
      dx2y2   :     0.013002
      dxy     :     0.012938
  9 C s       :     2.918435  s :     2.918435
      pz      :     1.060036  p :     3.120692
      px      :     1.067323
      py      :     0.993333
      dz2     :     0.021482  d :     0.084902
      dxz     :     0.031571
      dyz     :     0.008262
      dx2y2   :     0.012534
      dxy     :     0.011053
 10 C s       :     2.918133  s :     2.918133
      pz      :     1.051219  p :     3.130752
      px      :     1.014904
      py      :     1.064629
      dz2     :     0.017929  d :     0.083736
      dxz     :     0.008970
      dyz     :     0.028758
      dx2y2   :     0.015057
      dxy     :     0.013022
 11 C s       :     2.922319  s :     2.922319
      pz      :     1.055209  p :     3.118653
      px      :     0.997315
      py      :     1.066129
      dz2     :     0.018783  d :     0.085204
      dxz     :     0.008372
      dyz     :     0.027784
      dx2y2   :     0.013882
      dxy     :     0.016382
 12 H s       :     0.869192  s :     0.869192
 13 H s       :     0.867721  s :     0.867721
 14 H s       :     0.869375  s :     0.869375
 15 H s       :     0.869882  s :     0.869882
 16 H s       :     0.869776  s :     0.869776
 17 H s       :     0.867759  s :     0.867759
 18 H s       :     0.869047  s :     0.869047
 19 H s       :     0.870024  s :     0.870024
 20 H s       :     0.866339  s :     0.866339
 21 H s       :     0.865865  s :     0.865865


                      *****************************
                      * MAYER POPULATION ANALYSIS *
                      *****************************

  NA   - Mulliken gross atomic population
  ZA   - Total nuclear charge
  QA   - Mulliken gross atomic charge
  VA   - Mayer's total valence
  BVA  - Mayer's bonded valence
  FA   - Mayer's free valence

  ATOM       NA         ZA         QA         VA         BVA        FA
  0 C      6.1225     6.0000    -0.1225     3.9281     3.9281     0.0000
  1 C      6.1319     6.0000    -0.1319     3.9495     3.9495     0.0000
  2 C      6.1603     6.0000    -0.1603     3.9251     3.9251    -0.0000
  3 C      5.9168     6.0000     0.0832     3.9704     3.9704     0.0000
  4 C      5.9168     6.0000     0.0832     3.9695     3.9695     0.0000
  5 C      6.1844     6.0000    -0.1844     3.9151     3.9151     0.0000
  6 C      6.1324     6.0000    -0.1324     3.9470     3.9470    -0.0000
  7 C      6.1239     6.0000    -0.1239     3.9236     3.9236     0.0000
  8 C      6.1306     6.0000    -0.1306     3.9508     3.9508    -0.0000
  9 C      6.1597     6.0000    -0.1597     3.9242     3.9242    -0.0000
 10 C      6.1849     6.0000    -0.1849     3.9129     3.9129    -0.0000
 11 C      6.1309     6.0000    -0.1309     3.9467     3.9467    -0.0000
 12 H      0.8722     1.0000     0.1278     0.9377     0.9377    -0.0000
 13 H      0.8730     1.0000     0.1270     0.9444     0.9444     0.0000
 14 H      0.8688     1.0000     0.1312     0.9379     0.9379     0.0000
 15 H      0.8736     1.0000     0.1264     0.9383     0.9383     0.0000
 16 H      0.8740     1.0000     0.1260     0.9381     0.9381    -0.0000
 17 H      0.8724     1.0000     0.1276     0.9439     0.9439    -0.0000
 18 H      0.8676     1.0000     0.1324     0.9376     0.9376    -0.0000
 19 H      0.8746     1.0000     0.1254     0.9387     0.9387     0.0000
 20 H      0.8649     1.0000     0.1351     0.9369     0.9369     0.0000
 21 H      0.8639     1.0000     0.1361     0.9369     0.9369     0.0000

  Mayer bond orders larger than 0.100000
B(  0-C ,  1-C ) :   1.4398 B(  0-C , 11-C ) :   1.4276 B(  0-C , 20-H ) :   0.9289 
B(  1-C ,  2-C ) :   1.4622 B(  1-C , 12-H ) :   0.9300 B(  2-C ,  3-C ) :   1.4003 
B(  2-C , 13-H ) :   0.9163 B(  3-C ,  4-C ) :   1.0461 B(  3-C , 10-C ) :   1.3758 
B(  4-C ,  5-C ) :   1.3770 B(  4-C ,  9-C ) :   1.3977 B(  5-C ,  6-C ) :   1.4706 
B(  5-C , 14-H ) :   0.9206 B(  6-C ,  7-C ) :   1.4256 B(  6-C , 15-H ) :   0.9304 
B(  7-C ,  8-C ) :   1.4370 B(  7-C , 21-H ) :   0.9291 B(  8-C ,  9-C ) :   1.4655 
B(  8-C , 16-H ) :   0.9304 B(  9-C , 17-H ) :   0.9165 B( 10-C , 11-C ) :   1.4691 
B( 10-C , 18-H ) :   0.9207 B( 11-C , 19-H ) :   0.9306 

-------
TIMINGS
-------

Total SCF time: 0 days 0 hours 1 min 17 sec 

Total time                  ....      77.222 sec
Sum of individual times     ....      77.058 sec  ( 99.8%)

Fock matrix formation       ....      74.897 sec  ( 97.0%)
  XC integration            ....       4.294 sec  (  5.7% of F)
    Basis function eval.    ....       1.781 sec  ( 41.5% of XC)
    Density eval.           ....       0.825 sec  ( 19.2% of XC)
    XC-Functional eval.     ....       0.250 sec  (  5.8% of XC)
    XC-Potential eval.      ....       1.319 sec  ( 30.7% of XC)
Diagonalization             ....       0.026 sec  (  0.0%)
Density matrix formation    ....       0.006 sec  (  0.0%)
Population analysis         ....       0.004 sec  (  0.0%)
Initial guess               ....       0.533 sec  (  0.7%)
Orbital Transformation      ....       0.000 sec  (  0.0%)
Orbital Orthonormalization  ....       0.000 sec  (  0.0%)
DIIS solution               ....       0.010 sec  (  0.0%)
SOSCF solution              ....       0.019 sec  (  0.0%)
Grid generation             ....       1.563 sec  (  2.0%)

-------------------------   --------------------
FINAL SINGLE POINT ENERGY      -462.942898723505
-------------------------   --------------------

------------------------------------------------------------------------------
                         ORCA SCF GRADIENT CALCULATION
------------------------------------------------------------------------------

Gradient of the Kohn-Sham DFT energy:
Kohn-Sham wavefunction type      ... RKS
Hartree-Fock exchange scaling    ...    0.200
Number of operators              ...    1
Number of atoms                  ...   22
Basis set dimensions             ...  188
Integral neglect threshold       ... 2.5e-11
Integral primitive cutoff        ... 2.5e-12

Nuclear repulsion gradient       ... done
One Electron Gradient            ... done
Pre-screening matrix             ... done
Starting the two electron gradient:
Two electron gradient done
Exchange-correlation gradient    ... done

------------------
CARTESIAN GRADIENT
------------------

   1   C   :    0.021487920    0.021812771   -0.006733789
   2   C   :   -0.009074111   -0.013849815    0.007219578
   3   C   :   -0.006675163    0.001494120    0.000821482
   4   C   :    0.003700846   -0.003314383    0.000308343
   5   C   :   -0.004088900    0.002996347   -0.000238553
   6   C   :    0.002939880   -0.004123551   -0.001781775
   7   C   :   -0.009515702   -0.010040386    0.001343037
   8   C   :    0.021747500    0.025241188    0.003950233
   9   C   :   -0.013428175   -0.010704976   -0.005217398
  10   C   :    0.003131656   -0.005994569   -0.000620265
  11   C   :   -0.004070742    0.002234189    0.002090010
  12   C   :   -0.008480891   -0.009716229   -0.000358942
  13   H   :    0.003990995   -0.001167615   -0.002630732
  14   H   :   -0.000162891    0.000528246    0.000150639
  15   H   :    0.000482728   -0.000446731   -0.000146323
  16   H   :   -0.001240402    0.001902553    0.000025106
  17   H   :   -0.002470972    0.003128329    0.002187807
  18   H   :    0.000502587   -0.000286217   -0.000165478
  19   H   :   -0.000634963    0.000383540    0.000092679
  20   H   :    0.001818400   -0.000128408   -0.000293130
  21   H   :   -0.000001421    0.000047818    0.000015639
  22   H   :    0.000041821    0.000003779   -0.000018167

Difference to translation invariance:
           :    0.0000000000   -0.0000000000    0.0000000000

Norm of the cartesian gradient     ...    0.0580570584
RMS gradient                       ...    0.0071463299
MAX gradient                       ...    0.0252411876

-------
TIMINGS
-------

Total SCF gradient time            ...       30.203 sec

One electron gradient       ....       0.194 sec  (  0.6%)
Prescreening matrices       ....       0.126 sec  (  0.4%)
Two electron gradient       ....      23.995 sec  ( 79.4%)
XC gradient                 ....       5.791 sec  ( 19.2%)
------------------------------------------------------------------------------
                         ORCA GEOMETRY RELAXATION STEP
------------------------------------------------------------------------------

Reading the OPT-File                    .... done
Getting information on internals        .... done
Copying old internal coords+grads       .... done
Making the new internal coordinates     .... (old redundants).... done
Validating the new internal coordinates .... (old redundants).... done
Calculating the B-matrix                .... done
Calculating the G,G- and P matrices     .... done
Transforming gradient to internals      .... done
Projecting the internal gradient        .... done
Number of atoms                         ....  22
Number of internal coordinates          .... 121
Current Energy                          ....  -462.942898724 Eh
Current gradient norm                   ....     0.058057058 Eh/bohr
Maximum allowed component of the step   ....  0.300
Current trust radius                    ....  0.300
Evaluating the initial hessian          ....  (Almloef) done
Projecting the Hessian                  .... done
Forming the augmented Hessian           .... done
Diagonalizing the augmented Hessian     .... done
Last element of RFO vector              ....  0.814089192
Lowest eigenvalues of augmented Hessian:
 -0.031253549  0.012513972  0.024289593  0.024630724  0.024722470
Length of the computed step             ....  0.713361470
Warning: the length of the step is outside the trust region - taking restricted step instead
The input lambda is                     ....    -0.031254
   iter:   1  x=   -0.055243  g=   17.461130 f(x)=     0.418885
   iter:   2  x=   -0.082202  g=    6.168762 f(x)=     0.166302
   iter:   3  x=   -0.103641  g=    2.636485 f(x)=     0.056525
   iter:   4  x=   -0.112139  g=    1.543162 f(x)=     0.013114
   iter:   5  x=   -0.113055  g=    1.278715 f(x)=     0.001171
   iter:   6  x=   -0.113064  g=    1.253954 f(x)=     0.000011
   iter:   7  x=   -0.113064  g=    1.253712 f(x)=     0.000000
   iter:   8  x=   -0.113064  g=    1.253712 f(x)=     0.000000
The output lambda is                    ....    -0.113064 (8 iterations)
The final length of the internal step   ....  0.300000000
Converting the step to cartesian space:
Transforming coordinates:
 Iter   0:  RMS(Cart)=    0.1399083662 RMS(Int)=    0.5663648113
 Iter   1:  RMS(Cart)=    0.0064283127 RMS(Int)=    0.0027080657
 Iter   2:  RMS(Cart)=    0.0004902944 RMS(Int)=    0.0001682349
 Iter   3:  RMS(Cart)=    0.0000481056 RMS(Int)=    0.0000239622
 Iter   4:  RMS(Cart)=    0.0000042578 RMS(Int)=    0.0000020702
 Iter   5:  RMS(Cart)=    0.0000004332 RMS(Int)=    0.0000002400
 Iter   6:  RMS(Cart)=    0.0000000398 RMS(Int)=    0.0000000246
done
Storing new coordinates                 .... done

                                .--------------------.
          ----------------------|Geometry convergence|-------------------------
          Item                value                   Tolerance       Converged
          ---------------------------------------------------------------------
          RMS gradient        0.0046772241            0.0001000000      NO
          MAX gradient        0.0136635955            0.0003000000      NO
          RMS step            0.0272727273            0.0020000000      NO
          MAX step            0.0936845436            0.0040000000      NO
          ........................................................
          Max(Bonds)      0.0084      Max(Angles)    1.27
          Max(Dihed)        5.37      Max(Improp)    2.43
          ---------------------------------------------------------------------

The optimization has not yet converged - more geometry cycles are needed


    ---------------------------------------------------------------------------
                         Redundant Internal Coordinates
                            (Angstroem and degrees)

        Definition                    Value    dE/dq     Step     New-Value
    ----------------------------------------------------------------------------
     1. B(C   1,C   0)                1.4083  0.009019 -0.0069    1.4014   
     2. B(C   2,C   1)                1.3906 -0.005304  0.0038    1.3945   
     3. B(C   3,C   2)                1.4085 -0.002691  0.0022    1.4107   
     4. B(C   4,C   3)                1.4941 -0.002434  0.0024    1.4965   
     5. B(C   5,C   4)                1.4117 -0.000368  0.0003    1.4121   
     6. B(C   6,C   5)                1.3933 -0.000324  0.0002    1.3935   
     7. B(C   7,C   6)                1.4129  0.010788 -0.0084    1.4045   
     8. B(C   8,C   7)                1.4097  0.009783 -0.0076    1.4021   
     9. B(C   9,C   4)                1.4087 -0.002456  0.0020    1.4106   
    10. B(C   9,C   8)                1.3901 -0.005557  0.0040    1.3941   
    11. B(C  10,C   3)                1.4123 -0.000062  0.0001    1.4124   
    12. B(C  11,C   0)                1.4118  0.010123 -0.0079    1.4040   
    13. B(C  11,C  10)                1.3939  0.000337 -0.0003    1.3936   
    14. B(H  12,C   1)                1.0855 -0.001928  0.0021    1.0876   
    15. B(H  13,C   2)                1.0853 -0.000140  0.0002    1.0855   
    16. B(H  14,C   5)                1.0871 -0.000283  0.0003    1.0874   
    17. B(H  15,C   6)                1.0865 -0.001040  0.0012    1.0877   
    18. B(H  16,C   8)                1.0848 -0.002429  0.0027    1.0875   
    19. B(H  17,C   9)                1.0855 -0.000184  0.0002    1.0857   
    20. B(H  18,C  10)                1.0871 -0.000183  0.0002    1.0873   
    21. B(H  19,C  11)                1.0873 -0.000447  0.0005    1.0878   
    22. B(H  20,C   0)                1.0855  0.000045 -0.0001    1.0854   
    23. B(H  21,C   7)                1.0853  0.000044 -0.0000    1.0853   
    24. A(C   2,C   1,C   0)          120.99  0.003414   -0.22    120.77   
    25. A(C   3,C   2,C   1)          121.02 -0.000655    0.27    121.29   
    26. A(C   4,C   3,C   2)          117.26 -0.006331    0.94    118.20   
    27. A(C   5,C   4,C   3)          122.44  0.001745    0.00    122.45   
    28. A(C   6,C   5,C   4)          120.87 -0.001789    0.35    121.22   
    29. A(C   7,C   6,C   5)          121.04  0.002557   -0.16    120.87   
    30. A(C   8,C   7,C   6)          115.15 -0.009875    1.27    116.42   
    31. A(C   9,C   4,C   3)          117.50 -0.005488    0.86    118.36   
    32. A(C   9,C   4,C   5)          115.36  0.001397    0.16    115.53   
    33. A(C   9,C   8,C   7)          121.13  0.003911   -0.29    120.84   
    34. A(C   8,C   9,C   4)          121.09 -0.000156    0.24    121.32   
    35. A(C  10,C   3,C   2)          115.56  0.002429    0.03    115.59   
    36. A(C  10,C   3,C   4)          122.51  0.001588    0.02    122.53   
    37. A(C  11,C   0,C   1)          115.63 -0.008355    1.09    116.72   
    38. A(C  11,C  10,C   3)          120.85 -0.002275    0.39    121.24   
    39. A(C  10,C  11,C   0)          120.82  0.001734   -0.07    120.76   
    40. A(H  12,C   1,C   0)          119.78 -0.001121    0.15    119.93   
    41. A(H  12,C   1,C   2)          117.80 -0.003262    0.45    118.24   
    42. A(H  13,C   2,C   1)          117.70 -0.001453    0.21    117.90   
    43. A(H  13,C   2,C   3)          119.86  0.001157   -0.09    119.77   
    44. A(H  14,C   5,C   4)          120.09  0.002096   -0.23    119.86   
    45. A(H  14,C   5,C   6)          118.37 -0.000931    0.13    118.50   
    46. A(H  15,C   6,C   5)          118.06 -0.002418    0.30    118.37   
    47. A(H  15,C   6,C   7)          120.23 -0.000709    0.07    120.30   
    48. A(H  16,C   8,C   7)          120.22 -0.000491    0.06    120.28   
    49. A(H  16,C   8,C   9)          117.39 -0.004261    0.55    117.94   
    50. A(H  17,C   9,C   4)          119.88  0.001068   -0.06    119.82   
    51. A(H  17,C   9,C   8)          117.73 -0.002028    0.31    118.03   
    52. A(H  18,C  10,C   3)          120.05  0.002311   -0.25    119.80   
    53. A(H  18,C  10,C  11)          118.45 -0.000621    0.09    118.54   
    54. A(H  19,C  11,C   0)          120.00 -0.000961    0.13    120.13   
    55. A(H  19,C  11,C  10)          118.53 -0.001484    0.22    118.74   
    56. A(H  20,C   0,C   1)          121.81  0.004028   -0.45    121.36   
    57. A(H  20,C   0,C  11)          121.75  0.003778   -0.41    121.33   
    58. A(H  21,C   7,C   6)          121.95  0.004900   -0.55    121.40   
    59. A(H  21,C   7,C   8)          122.00  0.004376   -0.47    121.53   
    60. D(C   2,C   1,C   0,C  11)     17.99  0.006109   -2.57     15.42   
    61. D(H  12,C   1,C   0,C  11)   -175.99  0.001011   -0.72   -176.71   
    62. D(C   2,C   1,C   0,H  20)   -172.20  0.003044   -1.17   -173.37   
    63. D(H  12,C   1,C   0,H  20)     -6.17 -0.002053    0.68     -5.50   
    64. D(C   3,C   2,C   1,C   0)      0.02 -0.000779    0.02      0.04   
    65. D(C   3,C   2,C   1,H  12)   -166.27  0.003954   -1.76   -168.03   
    66. D(H  13,C   2,C   1,C   0)    166.38 -0.005098    1.84    168.22   
    67. D(H  13,C   2,C   1,H  12)      0.09 -0.000365    0.06      0.16   
    68. D(C   4,C   3,C   2,C   1)    138.39 -0.011793    4.95    143.35   
    69. D(C  10,C   3,C   2,C   1)    -18.05 -0.006709    2.59    -15.46   
    70. D(C   4,C   3,C   2,H  13)    -27.68 -0.007024    3.05    -24.63   
    71. D(C  10,C   3,C   2,H  13)    175.88 -0.001940    0.69    176.57   
    72. D(C   5,C   4,C   3,C   2)     21.94 -0.001947    0.88     22.82   
    73. D(C   9,C   4,C   3,C   2)   -132.63  0.003809   -1.81   -134.44   
    74. D(C   5,C   4,C   3,C  10)    176.62 -0.007391    3.45    180.07   
    75. D(C   9,C   4,C   3,C  10)     22.05 -0.001635    0.75     22.80   
    76. D(C   6,C   5,C   4,C   3)   -136.71  0.013664   -5.37   -142.08   
    77. D(C   6,C   5,C   4,C   9)     18.36  0.006400   -2.56     15.80   
    78. D(H  14,C   5,C   4,C   3)     33.75  0.009180   -3.59     30.16   
    79. D(H  14,C   5,C   4,C   9)   -171.18  0.001916   -0.78   -171.96   
    80. D(C   7,C   6,C   5,C   4)     -0.11  0.001656   -0.30     -0.40   
    81. D(C   7,C   6,C   5,H  14)   -170.73  0.005780   -2.01   -172.74   
    82. D(H  15,C   6,C   5,C   4)    170.53 -0.002369    1.18    171.71   
    83. D(H  15,C   6,C   5,H  14)     -0.09  0.001755   -0.54     -0.63   
    84. D(C   8,C   7,C   6,C   5)    -18.38 -0.006087    2.63    -15.75   
    85. D(C   8,C   7,C   6,H  15)    171.19 -0.001826    1.10    172.29   
    86. D(H  21,C   7,C   6,C   5)    172.30 -0.002966    1.20    173.51   
    87. D(H  21,C   7,C   6,H  15)      1.87  0.001296   -0.32      1.55   
    88. D(C   9,C   8,C   7,C   6)     18.69  0.005881   -2.45     16.23   
    89. D(H  16,C   8,C   7,C   6)   -174.48  0.001002   -0.73   -175.22   
    90. D(C   9,C   8,C   7,H  21)   -172.00  0.002818   -1.03   -173.04   
    91. D(H  16,C   8,C   7,H  21)     -5.17 -0.002062    0.69     -4.49   
    92. D(C   8,C   9,C   4,C   3)    138.24 -0.012340    5.24    143.48   
    93. D(C   8,C   9,C   4,C   5)    -18.12 -0.007235    2.79    -15.32   
    94. D(H  17,C   9,C   4,C   3)    -28.38 -0.006469    2.78    -25.60   
    95. D(H  17,C   9,C   4,C   5)    175.26 -0.001365    0.33    175.59   
    96. D(C   4,C   9,C   8,C   7)     -0.47 -0.000565   -0.13     -0.59   
    97. D(C   4,C   9,C   8,H  16)   -167.66  0.003740   -1.74   -169.40   
    98. D(H  17,C   9,C   8,C   7)    166.43 -0.005919    2.24    168.67   
    99. D(H  17,C   9,C   8,H  16)     -0.76 -0.001614    0.62     -0.13   
   100. D(C  11,C  10,C   3,C   2)     18.05  0.005792   -2.34     15.71   
   101. D(C  11,C  10,C   3,C   4)   -137.03  0.013195   -5.08   -142.11   
   102. D(H  18,C  10,C   3,C   2)   -171.30  0.001535   -0.66   -171.96   
   103. D(H  18,C  10,C   3,C   4)     33.62  0.008938   -3.40     30.22   
   104. D(C  10,C  11,C   0,C   1)    -17.92 -0.006357    2.76    -15.16   
   105. D(H  19,C  11,C   0,C   1)    171.43 -0.001112    0.76    172.19   
   106. D(C  10,C  11,C   0,H  20)    172.25 -0.003324    1.37    173.62   
   107. D(H  19,C  11,C   0,H  20)      1.61  0.001922   -0.63      0.97   
   108. D(C   0,C  11,C  10,C   3)     -0.09  0.002054   -0.47     -0.56   
   109. D(C   0,C  11,C  10,H  18)   -170.88  0.005971   -2.09   -172.98   
   110. D(H  19,C  11,C  10,C   3)    170.69 -0.003073    1.50    172.19   
   111. D(H  19,C  11,C  10,H  18)     -0.10  0.000844   -0.13     -0.23   
   112. I(C   0,H  12,C   2,C   1)     11.72  0.003601   -1.48     10.24   
   113. I(C   1,H  20,C  11,C   0)      9.17  0.003373   -1.34      7.83   
   114. I(C   1,H  13,C   3,C   2)     11.91  0.004137   -1.65     10.25   
   115. I(C   2,C  10,C   4,C   3)    -22.34 -0.006070    2.43    -19.91   
   116. I(C   3,C   9,C   5,C   4)    -20.84 -0.005526    2.30    -18.54   
   117. I(C   4,H  14,C   6,C   5)      8.04  0.003678   -1.50      6.55   
   118. I(C   5,H  15,C   7,C   6)      8.19  0.003416   -1.29      6.90   
   119. I(C   6,H  21,C   8,C   7)     -9.67 -0.003554    1.38     -8.28   
   120. I(C   7,H  16,C   9,C   8)     10.94  0.003203   -1.34      9.60   
   121. I(C   3,H  18,C  11,C  10)      7.89  0.003540   -1.42      6.47   
    ----------------------------------------------------------------------------

         *************************************************************
         *                GEOMETRY OPTIMIZATION CYCLE   2            *
         *************************************************************
---------------------------------
CARTESIAN COORDINATES (ANGSTROEM)
---------------------------------
  C     -3.606588    0.730060    0.141433
  C     -3.222633    0.097896    1.331700
  C     -2.821299   -1.237575    1.332331
  C     -2.787865   -1.992901    0.141305
  C     -1.685006   -2.989261   -0.033356
  C     -0.984571   -3.543039    1.060563
  C      0.385540   -3.787589    0.991319
  C      1.111018   -3.496824   -0.175627
  C      0.359711   -3.285176   -1.340387
  C     -1.009096   -3.030350   -1.270865
  C     -3.490808   -1.439098   -0.951436
  C     -3.886969   -0.103002   -0.953300
  H     -3.044917    0.689129    2.227147
  H     -2.351230   -1.626205    2.230246
  H     -1.486284   -3.668478    2.017082
  H      0.903968   -4.085168    1.900014
  H      0.858658   -3.132495   -2.294508
  H     -1.510849   -2.689744   -2.171377
  H     -3.621896   -2.021040   -1.860528
  H     -4.310541    0.315669   -1.863546
  H     -3.818297    1.794149    0.109770
  H      2.192247   -3.585186   -0.205930

----------------------------
CARTESIAN COORDINATES (A.U.)
----------------------------
  NO LB      ZA    FRAG     MASS         X           Y           Z
   0 C     6.0000    0    12.011   -6.815464    1.379613    0.267269
   1 C     6.0000    0    12.011   -6.089893    0.184996    2.516548
   2 C     6.0000    0    12.011   -5.331482   -2.338677    2.517740
   3 C     6.0000    0    12.011   -5.268302   -3.766038    0.267027
   4 C     6.0000    0    12.011   -3.184199   -5.648884   -0.063033
   5 C     6.0000    0    12.011   -1.860570   -6.695373    2.004174
   6 C     6.0000    0    12.011    0.728565   -7.157505    1.873322
   7 C     6.0000    0    12.011    2.099520   -6.608040   -0.331887
   8 C     6.0000    0    12.011    0.679756   -6.208083   -2.532964
   9 C     6.0000    0    12.011   -1.906915   -5.726532   -2.401586
  10 C     6.0000    0    12.011   -6.596672   -2.719501   -1.797954
  11 C     6.0000    0    12.011   -7.345307   -0.194646   -1.801475
  12 H     1.0000    0     1.008   -5.754059    1.302265    4.208698
  13 H     1.0000    0     1.008   -4.443180   -3.073082    4.214554
  14 H     1.0000    0     1.008   -2.808670   -6.932418    3.811733
  15 H     1.0000    0     1.008    1.708252   -7.719848    3.590505
  16 H     1.0000    0     1.008    1.622629   -5.919559   -4.335991
  17 H     1.0000    0     1.008   -2.855092   -5.082879   -4.103307
  18 H     1.0000    0     1.008   -6.844391   -3.819213   -3.515888
  19 H     1.0000    0     1.008   -8.145741    0.596528   -3.521592
  20 H     1.0000    0     1.008   -7.215535    3.390449    0.207435
  21 H     1.0000    0     1.008    4.142747   -6.775019   -0.389152

--------------------------------
INTERNAL COORDINATES (ANGSTROEM)
[...]
 113   0.0000       1.106686        30.1144 
 114   0.0000       1.123729        30.5782 
 115   0.0000       1.124501        30.5992 
 116   0.0000       1.158392        31.5214 
 117   0.0000       1.174604        31.9626 
 118   0.0000       1.188483        32.3403 
 119   0.0000       1.216528        33.1034 
 120   0.0000       1.228646        33.4332 
 121   0.0000       1.259651        34.2769 
 122   0.0000       1.291132        35.1335 
 123   0.0000       1.335512        36.3411 
 124   0.0000       1.416603        38.5477 
 125   0.0000       1.424021        38.7496 
 126   0.0000       1.428345        38.8673 
 127   0.0000       1.455853        39.6158 
 128   0.0000       1.463295        39.8183 
 129   0.0000       1.477749        40.2116 
 130   0.0000       1.497423        40.7469 
 131   0.0000       1.501432        40.8560 
 132   0.0000       1.502060        40.8731 
 133   0.0000       1.504020        40.9265 
 134   0.0000       1.520766        41.3822 
 135   0.0000       1.524698        41.4891 
 136   0.0000       1.644330        44.7445 
 137   0.0000       1.727528        47.0084 
 138   0.0000       1.785562        48.5876 
 139   0.0000       1.787921        48.6518 
 140   0.0000       1.826909        49.7127 
 141   0.0000       1.837198        49.9927 
 142   0.0000       1.845804        50.2269 
 143   0.0000       1.904080        51.8126 
 144   0.0000       1.906891        51.8891 
 145   0.0000       1.922516        52.3143 
 146   0.0000       1.937607        52.7250 
 147   0.0000       1.976071        53.7716 
 148   0.0000       1.990832        54.1733 
 149   0.0000       2.026736        55.1503 
 150   0.0000       2.060669        56.0737 
 151   0.0000       2.063686        56.1557 
 152   0.0000       2.078175        56.5500 
 153   0.0000       2.128062        57.9075 
 154   0.0000       2.129984        57.9598 
 155   0.0000       2.143888        58.3382 
 156   0.0000       2.161046        58.8050 
 157   0.0000       2.161217        58.8097 
 158   0.0000       2.177967        59.2655 
 159   0.0000       2.214167        60.2505 
 160   0.0000       2.230544        60.6962 
 161   0.0000       2.294465        62.4356 
 162   0.0000       2.294917        62.4479 
 163   0.0000       2.315328        63.0033 
 164   0.0000       2.316198        63.0270 
 165   0.0000       2.317300        63.0570 
 166   0.0000       2.354816        64.0778 
 167   0.0000       2.423769        65.9541 
 168   0.0000       2.513310        68.3906 
 169   0.0000       2.580827        70.2279 
 170   0.0000       2.586171        70.3733 
 171   0.0000       2.591499        70.5183 
 172   0.0000       2.626745        71.4774 
 173   0.0000       2.651376        72.1476 
 174   0.0000       2.663555        72.4790 
 175   0.0000       2.686064        73.0915 
 176   0.0000       2.732002        74.3416 
 177   0.0000       2.737868        74.5012 
 178   0.0000       2.744353        74.6776 
 179   0.0000       2.760976        75.1300 
 180   0.0000       2.769212        75.3541 
 181   0.0000       2.786774        75.8320 
 182   0.0000       2.841799        77.3293 
 183   0.0000       2.983008        81.1718 
 184   0.0000       2.985834        81.2487 
 185   0.0000       3.197529        87.0092 
 186   0.0000       3.369532        91.6896 
 187   0.0000       3.467616        94.3586 

                    ********************************
                    * MULLIKEN POPULATION ANALYSIS *
                    ********************************

-----------------------
MULLIKEN ATOMIC CHARGES
-----------------------
   0 C :   -0.124041
   1 C :   -0.131655
   2 C :   -0.175180
   3 C :    0.089600
   4 C :    0.085009
   5 C :   -0.170761
   6 C :   -0.132343
   7 C :   -0.124055
   8 C :   -0.133496
   9 C :   -0.170227
  10 C :   -0.171842
  11 C :   -0.135450
  12 H :    0.127688
  13 H :    0.132035
  14 H :    0.129986
  15 H :    0.128194
  16 H :    0.127276
  17 H :    0.129908
  18 H :    0.131338
  19 H :    0.129580
  20 H :    0.129053
  21 H :    0.129383
Sum of atomic charges:   -0.0000000

--------------------------------
MULLIKEN REDUCED ORBITAL CHARGES
--------------------------------
  0 C s       :     3.182168  s :     3.182168
      pz      :     0.943111  p :     2.905784
      px      :     0.977935
      py      :     0.984737
      dz2     :     0.010107  d :     0.036089
      dxz     :     0.007755
      dyz     :     0.007061
      dx2y2   :     0.003157
      dxy     :     0.008009
  1 C s       :     3.191201  s :     3.191201
      pz      :     0.967556  p :     2.904174
      px      :     0.957353
      py      :     0.979265
      dz2     :     0.008260  d :     0.036280
      dxz     :     0.007054
      dyz     :     0.008887
      dx2y2   :     0.006411
      dxy     :     0.005668
  2 C s       :     3.193922  s :     3.193922
      pz      :     0.989072  p :     2.945422
      px      :     0.978971
      py      :     0.977379
      dz2     :     0.007224  d :     0.035835
      dxz     :     0.010822
      dyz     :     0.006429
      dx2y2   :     0.006290
      dxy     :     0.005071
  3 C s       :     3.136332  s :     3.136332
      pz      :     0.874040  p :     2.733193
      px      :     0.922351
      py      :     0.936802
      dz2     :     0.009809  d :     0.040874
      dxz     :     0.009095
      dyz     :     0.008198
      dx2y2   :     0.006799
      dxy     :     0.006974
  4 C s       :     3.136195  s :     3.136195
      pz      :     0.865398  p :     2.737922
      px      :     0.936828
      py      :     0.935696
      dz2     :     0.010115  d :     0.040874
      dxz     :     0.009254
      dyz     :     0.008763
      dx2y2   :     0.006258
      dxy     :     0.006484
  5 C s       :     3.195126  s :     3.195126
      pz      :     0.984668  p :     2.939802
      px      :     0.976280
      py      :     0.978854
      dz2     :     0.008744  d :     0.035833
      dxz     :     0.009519
      dyz     :     0.006407
      dx2y2   :     0.006025
      dxy     :     0.005138
  6 C s       :     3.191796  s :     3.191796
      pz      :     0.959213  p :     2.904260
      px      :     0.963742
      py      :     0.981305
      dz2     :     0.008273  d :     0.036287
      dxz     :     0.007655
      dyz     :     0.009621
      dx2y2   :     0.005518
      dxy     :     0.005220
  7 C s       :     3.182681  s :     3.182681
      pz      :     0.939094  p :     2.905272
      px      :     0.982336
      py      :     0.983841
      dz2     :     0.010472  d :     0.036102
      dxz     :     0.007809
      dyz     :     0.007659
      dx2y2   :     0.002649
      dxy     :     0.007512
  8 C s       :     3.192592  s :     3.192592
      pz      :     0.966733  p :     2.904603
      px      :     0.972993
      py      :     0.964877
      dz2     :     0.009186  d :     0.036301
      dxz     :     0.009377
      dyz     :     0.006369
      dx2y2   :     0.006078
      dxy     :     0.005291
  9 C s       :     3.195558  s :     3.195558
      pz      :     0.984160  p :     2.938845
      px      :     0.974888
      py      :     0.979798
      dz2     :     0.007939  d :     0.035823
      dxz     :     0.007651
      dyz     :     0.009689
      dx2y2   :     0.005470
      dxy     :     0.005073
 10 C s       :     3.194378  s :     3.194378
      pz      :     0.987696  p :     2.941638
      px      :     0.973029
      py      :     0.980913
      dz2     :     0.007801  d :     0.035826
      dxz     :     0.007153
      dyz     :     0.008973
      dx2y2   :     0.006380
      dxy     :     0.005518
 11 C s       :     3.190106  s :     3.190106
      pz      :     0.962432  p :     2.909044
      px      :     0.981922
      py      :     0.964690
      dz2     :     0.007579  d :     0.036300
      dxz     :     0.010807
      dyz     :     0.006367
      dx2y2   :     0.006289
      dxy     :     0.005259
 12 H s       :     0.872312  s :     0.872312
 13 H s       :     0.867965  s :     0.867965
 14 H s       :     0.870014  s :     0.870014
 15 H s       :     0.871806  s :     0.871806
 16 H s       :     0.872724  s :     0.872724
 17 H s       :     0.870092  s :     0.870092
 18 H s       :     0.868662  s :     0.868662
 19 H s       :     0.870420  s :     0.870420
 20 H s       :     0.870947  s :     0.870947
 21 H s       :     0.870617  s :     0.870617


                     *******************************
                     * LOEWDIN POPULATION ANALYSIS *
                     *******************************

----------------------
LOEWDIN ATOMIC CHARGES
----------------------
   0 C :   -0.131255
   1 C :   -0.127919
   2 C :   -0.128555
   3 C :   -0.013877
   4 C :   -0.014343
   5 C :   -0.127950
   6 C :   -0.128022
   7 C :   -0.131281
   8 C :   -0.127935
   9 C :   -0.127988
  10 C :   -0.128154
  11 C :   -0.128509
  12 H :    0.131011
  13 H :    0.132492
  14 H :    0.132188
  15 H :    0.131149
  16 H :    0.130866
  17 H :    0.132255
  18 H :    0.132492
  19 H :    0.131309
  20 H :    0.130996
  21 H :    0.131029

-------------------------------
LOEWDIN REDUCED ORBITAL CHARGES
-------------------------------
  0 C s       :     2.917897  s :     2.917897
      pz      :     1.060588  p :     3.128399
      px      :     1.040024
      py      :     1.027787
      dz2     :     0.025564  d :     0.084959
      dxz     :     0.020281
      dyz     :     0.017819
      dx2y2   :     0.006563
      dxy     :     0.014732
  1 C s       :     2.917319  s :     2.917319
      pz      :     1.058944  p :     3.124993
      px      :     1.039259
      py      :     1.026789
      dz2     :     0.018929  d :     0.085608
      dxz     :     0.018626
      dyz     :     0.018487
      dx2y2   :     0.014715
      dxy     :     0.014851
  2 C s       :     2.917280  s :     2.917280
      pz      :     1.053279  p :     3.127365
      px      :     1.044656
      py      :     1.029430
      dz2     :     0.017375  d :     0.083911
      dxz     :     0.023206
      dyz     :     0.016247
      dx2y2   :     0.013609
      dxy     :     0.013475
  3 C s       :     2.869937  s :     2.869937
      pz      :     1.049302  p :     3.042279
      px      :     1.002294
      py      :     0.990684
      dz2     :     0.026320  d :     0.101660
      dxz     :     0.023946
      dyz     :     0.020934
      dx2y2   :     0.014459
      dxy     :     0.016001
  4 C s       :     2.869958  s :     2.869958
      pz      :     1.056788  p :     3.042781
      px      :     0.993204
      py      :     0.992789
      dz2     :     0.027889  d :     0.101605
      dxz     :     0.023732
      dyz     :     0.022522
      dx2y2   :     0.012728
      dxy     :     0.014733
  5 C s       :     2.917287  s :     2.917287
      pz      :     1.060035  p :     3.126752
      px      :     1.035992
      py      :     1.030725
      dz2     :     0.019970  d :     0.083911
      dxz     :     0.020894
      dyz     :     0.016006
      dx2y2   :     0.013056
      dxy     :     0.013985
  6 C s       :     2.917385  s :     2.917385
      pz      :     1.064992  p :     3.125057
      px      :     1.031648
      py      :     1.028417
      dz2     :     0.019997  d :     0.085580
      dxz     :     0.019681
      dyz     :     0.020737
      dx2y2   :     0.012132
      dxy     :     0.013032
  7 C s       :     2.917990  s :     2.917990
      pz      :     1.065784  p :     3.128344
      px      :     1.033449
      py      :     1.029111
      dz2     :     0.027221  d :     0.084947
      dxz     :     0.019731
      dyz     :     0.019537
      dx2y2   :     0.005043
      dxy     :     0.013415
  8 C s       :     2.917408  s :     2.917408
      pz      :     1.064646  p :     3.124939
      px      :     1.033032
      py      :     1.027261
      dz2     :     0.020953  d :     0.085588
      dxz     :     0.020718
      dyz     :     0.016419
      dx2y2   :     0.013465
      dxy     :     0.014033
  9 C s       :     2.917382  s :     2.917382
      pz      :     1.057821  p :     3.126692
      px      :     1.034934
      py      :     1.033938
      dz2     :     0.019080  d :     0.083914
      dxz     :     0.019188
      dyz     :     0.020810
      dx2y2   :     0.011820
      dxy     :     0.013016
 10 C s       :     2.917255  s :     2.917255
      pz      :     1.055200  p :     3.126973
      px      :     1.039345
      py      :     1.032428
      dz2     :     0.017928  d :     0.083926
      dxz     :     0.018262
      dyz     :     0.018595
      dx2y2   :     0.014330
      dxy     :     0.014811
 11 C s       :     2.917266  s :     2.917266
      pz      :     1.059561  p :     3.125653
      px      :     1.040569
      py      :     1.025523
      dz2     :     0.018318  d :     0.085590
      dxz     :     0.023217
      dyz     :     0.016658
      dx2y2   :     0.013844
      dxy     :     0.013554
 12 H s       :     0.868989  s :     0.868989
 13 H s       :     0.867508  s :     0.867508
 14 H s       :     0.867812  s :     0.867812
 15 H s       :     0.868851  s :     0.868851
 16 H s       :     0.869134  s :     0.869134
 17 H s       :     0.867745  s :     0.867745
 18 H s       :     0.867508  s :     0.867508
 19 H s       :     0.868691  s :     0.868691
 20 H s       :     0.869004  s :     0.869004
 21 H s       :     0.868971  s :     0.868971


                      *****************************
                      * MAYER POPULATION ANALYSIS *
                      *****************************

  NA   - Mulliken gross atomic population
  ZA   - Total nuclear charge
  QA   - Mulliken gross atomic charge
  VA   - Mayer's total valence
  BVA  - Mayer's bonded valence
  FA   - Mayer's free valence

  ATOM       NA         ZA         QA         VA         BVA        FA
  0 C      6.1240     6.0000    -0.1240     3.9470     3.9470    -0.0000
  1 C      6.1317     6.0000    -0.1317     3.9448     3.9448     0.0000
  2 C      6.1752     6.0000    -0.1752     3.9249     3.9249     0.0000
  3 C      5.9104     6.0000     0.0896     3.9887     3.9887    -0.0000
  4 C      5.9150     6.0000     0.0850     3.9899     3.9899    -0.0000
  5 C      6.1708     6.0000    -0.1708     3.9234     3.9234     0.0000
  6 C      6.1323     6.0000    -0.1323     3.9435     3.9435    -0.0000
  7 C      6.1241     6.0000    -0.1241     3.9446     3.9446    -0.0000
  8 C      6.1335     6.0000    -0.1335     3.9443     3.9443    -0.0000
  9 C      6.1702     6.0000    -0.1702     3.9231     3.9231    -0.0000
 10 C      6.1718     6.0000    -0.1718     3.9236     3.9236    -0.0000
 11 C      6.1355     6.0000    -0.1355     3.9457     3.9457     0.0000
 12 H      0.8723     1.0000     0.1277     0.9380     0.9380    -0.0000
 13 H      0.8680     1.0000     0.1320     0.9409     0.9409     0.0000
 14 H      0.8700     1.0000     0.1300     0.9414     0.9414    -0.0000
 15 H      0.8718     1.0000     0.1282     0.9376     0.9376    -0.0000
 16 H      0.8727     1.0000     0.1273     0.9380     0.9380    -0.0000
 17 H      0.8701     1.0000     0.1299     0.9414     0.9414    -0.0000
 18 H      0.8687     1.0000     0.1313     0.9412     0.9412    -0.0000
 19 H      0.8704     1.0000     0.1296     0.9375     0.9375     0.0000
 20 H      0.8709     1.0000     0.1291     0.9374     0.9374    -0.0000
 21 H      0.8706     1.0000     0.1294     0.9370     0.9370     0.0000

  Mayer bond orders larger than 0.100000
B(  0-C ,  1-C ) :   1.4492 B(  0-C , 11-C ) :   1.4494 B(  0-C , 20-H ) :   0.9303 
B(  1-C ,  2-C ) :   1.4417 B(  1-C , 12-H ) :   0.9296 B(  2-C ,  3-C ) :   1.4129 
B(  2-C , 13-H ) :   0.9199 B(  3-C ,  4-C ) :   1.0104 B(  3-C , 10-C ) :   1.4113 
B(  4-C ,  5-C ) :   1.4118 B(  4-C ,  9-C ) :   1.4119 B(  5-C ,  6-C ) :   1.4413 
B(  5-C , 14-H ) :   0.9203 B(  6-C ,  7-C ) :   1.4477 B(  6-C , 15-H ) :   0.9296 
B(  7-C ,  8-C ) :   1.4485 B(  7-C , 21-H ) :   0.9305 B(  8-C ,  9-C ) :   1.4409 
B(  8-C , 16-H ) :   0.9301 B(  9-C , 17-H ) :   0.9201 B( 10-C , 11-C ) :   1.4426 
B( 10-C , 18-H ) :   0.9198 B( 11-C , 19-H ) :   0.9293 

-------
TIMINGS
-------

Total SCF time: 0 days 0 hours 0 min 27 sec 

Total time                  ....      27.951 sec
Sum of individual times     ....      27.757 sec  ( 99.3%)

Fock matrix formation       ....      26.199 sec  ( 93.7%)
  XC integration            ....       2.107 sec  (  8.0% of F)
    Basis function eval.    ....       0.886 sec  ( 42.0% of XC)
    Density eval.           ....       0.410 sec  ( 19.5% of XC)
    XC-Functional eval.     ....       0.127 sec  (  6.0% of XC)
    XC-Potential eval.      ....       0.624 sec  ( 29.6% of XC)
Diagonalization             ....       0.004 sec  (  0.0%)
Density matrix formation    ....       0.002 sec  (  0.0%)
Population analysis         ....       0.004 sec  (  0.0%)
Initial guess               ....       0.004 sec  (  0.0%)
Orbital Transformation      ....       0.000 sec  (  0.0%)
Orbital Orthonormalization  ....       0.003 sec  (  0.0%)
DIIS solution               ....       0.001 sec  (  0.0%)
SOSCF solution              ....       0.011 sec  (  0.0%)
Grid generation             ....       1.532 sec  (  5.5%)

-------------------------   --------------------
FINAL SINGLE POINT ENERGY      -462.994432236895
-------------------------   --------------------

                                *** OPTIMIZATION RUN DONE ***

                            ***************************************
                            *     ORCA property calculations      *
                            ***************************************

                                    ---------------------
                                    Active property flags
                                    ---------------------
   (+) Dipole Moment


------------------------------------------------------------------------------
                       ORCA ELECTRIC PROPERTIES CALCULATION
------------------------------------------------------------------------------

Dipole Moment Calculation                       ... on
Quadrupole Moment Calculation                   ... off
Polarizability Calculation                      ... off
GBWName                                         ... test_dummy.gbw
Electron density file                           ... test_dummy.scfp
The origin for moment calculation is the CENTER OF MASS  = (-3.249243, -3.614967  0.031001)

-------------
DIPOLE MOMENT
-------------
                                X             Y             Z
Electronic contribution:      0.00174      -0.00026      -0.00084
Nuclear contribution   :     -0.00036      -0.00117       0.00117
                        -----------------------------------------
Total Dipole Moment    :      0.00138      -0.00144       0.00033
                        -----------------------------------------
Magnitude (a.u.)       :      0.00202
Magnitude (Debye)      :      0.00512



--------------------
Rotational spectrum 
--------------------
 
Rotational constants in cm-1:     0.095230     0.018182     0.015783 
Rotational constants in MHz :  2854.936911   545.071121   473.173699 

 Dipole components along the rotational axes: 
x,y,z [a.u.] :    -0.001950     0.000483     0.000170 
x,y,z [Debye]:    -0.004956     0.001228     0.000433 

 

Timings for individual modules:

Sum of individual times         ...     1147.341 sec (=  19.122 min)
GTO integral calculation        ...        3.343 sec (=   0.056 min)   0.3 %
SCF iterations                  ...      791.051 sec (=  13.184 min)  68.9 %
SCF Gradient evaluation         ...      351.727 sec (=   5.862 min)  30.7 %
Geometry relaxation             ...        1.220 sec (=   0.020 min)   0.1 %
                             ****ORCA TERMINATED NORMALLY****
TOTAL RUN TIME: 0 days 0 hours 19 minutes 8 seconds 400 msec
