 Entering Gaussian System, Link 0=g09
 Initial command:
 /packages/gaussian/g09e01/l1.exe "/tmp/Gau-72172.inp" -scrdir="/tmp/"
 Entering Link 1 = /packages/gaussian/g09e01/l1.exe PID=     72173.
  
 Copyright (c) 1988,1990,1992,1993,1995,1998,2003,2009,2015,
            Gaussian, Inc.  All Rights Reserved.
  
 This is part of the Gaussian(R) 09 program.  It is based on
 the Gaussian(R) 03 system (copyright 2003, Gaussian, Inc.),
 the Gaussian(R) 98 system (copyright 1998, Gaussian, Inc.),
 the Gaussian(R) 94 system (copyright 1995, Gaussian, Inc.),
 the Gaussian 92(TM) system (copyright 1992, Gaussian, Inc.),
 the Gaussian 90(TM) system (copyright 1990, Gaussian, Inc.),
 the Gaussian 88(TM) system (copyright 1988, Gaussian, Inc.),
 the Gaussian 86(TM) system (copyright 1986, Carnegie Mellon
 University), and the Gaussian 82(TM) system (copyright 1983,
 Carnegie Mellon University). Gaussian is a federally registered
 trademark of Gaussian, Inc.
  
 This software contains proprietary and confidential information,
 including trade secrets, belonging to Gaussian, Inc.
  
 This software is provided under written license and may be
 used, copied, transmitted, or stored only in accord with that
 written license.
  
 The following legend is applicable only to US Government
 contracts under FAR:
  
                    RESTRICTED RIGHTS LEGEND
  
 Use, reproduction and disclosure by the US Government is
 subject to restrictions as set forth in subparagraphs (a)
 and (c) of the Commercial Computer Software - Restricted
 Rights clause in FAR 52.227-19.
  
 Gaussian, Inc.
 340 Quinnipiac St., Bldg. 40, Wallingford CT 06492
  
  
 ---------------------------------------------------------------
 Warning -- This program may not be used in any manner that
 competes with the business of Gaussian, Inc. or will provide
 assistance to any competitor of Gaussian, Inc.  The licensee
 of this program is prohibited from giving any competitor of
 Gaussian, Inc. access to this program.  By using this program,
 the user acknowledges that Gaussian, Inc. is engaged in the
 business of creating and licensing software in the field of
 computational chemistry and represents and warrants to the
 licensee that it is not a competitor of Gaussian, Inc. and that
 it will not use this program in any manner prohibited above.
 ---------------------------------------------------------------
  

 Cite this work as:
 Gaussian 09, Revision E.01,
 M. J. Frisch, G. W. Trucks, H. B. Schlegel, G. E. Scuseria, 
 M. A. Robb, J. R. Cheeseman, G. Scalmani, V. Barone, B. Mennucci, 
 G. A. Petersson, H. Nakatsuji, M. Caricato, X. Li, H. P. Hratchian, 
 A. F. Izmaylov, J. Bloino, G. Zheng, J. L. Sonnenberg, M. Hada, 
 M. Ehara, K. Toyota, R. Fukuda, J. Hasegawa, M. Ishida, T. Nakajima, 
 Y. Honda, O. Kitao, H. Nakai, T. Vreven, J. A. Montgomery, Jr., 
 J. E. Peralta, F. Ogliaro, M. Bearpark, J. J. Heyd, E. Brothers, 
 K. N. Kudin, V. N. Staroverov, T. Keith, R. Kobayashi, J. Normand, 
 K. Raghavachari, A. Rendell, J. C. Burant, S. S. Iyengar, J. Tomasi, 
 M. Cossi, N. Rega, J. M. Millam, M. Klene, J. E. Knox, J. B. Cross, 
 V. Bakken, C. Adamo, J. Jaramillo, R. Gomperts, R. E. Stratmann, 
 O. Yazyev, A. J. Austin, R. Cammi, C. Pomelli, J. W. Ochterski, 
 R. L. Martin, K. Morokuma, V. G. Zakrzewski, G. A. Voth, 
 P. Salvador, J. J. Dannenberg, S. Dapprich, A. D. Daniels, 
 O. Farkas, J. B. Foresman, J. V. Ortiz, J. Cioslowski, 
 and D. J. Fox, Gaussian, Inc., Wallingford CT, 2013.
 
 ******************************************
 Gaussian 09:  EM64L-G09RevE.01 30-Nov-2015
                18-Apr-2019 
 ******************************************
 ---------------------
 #n B3LYP/6-31G(d) opt
 ---------------------
 1/14=-1,18=20,19=15,26=3,38=1/1,3;
 2/9=110,12=2,17=6,18=5,40=1/2;
 3/5=1,6=6,7=1,11=2,16=1,25=1,30=1,71=1,74=-5/1,2,3;
 4//1;
 5/5=2,38=5/2;
 6/7=2,8=2,9=2,10=2,28=1/1;
 7//1,2,3,16;
 1/14=-1,18=20,19=15,26=3/3(2);
 2/9=110/2;
 99//99;
 2/9=110/2;
 3/5=1,6=6,7=1,11=2,16=1,25=1,30=1,71=1,74=-5/1,2,3;
 4/5=5,16=3,69=1/1;
 5/5=2,38=5/2;
 7//1,2,3,16;
 1/14=-1,18=20,19=15,26=3/3(-5);
 2/9=110/2;
 6/7=2,8=2,9=2,10=2,19=2,28=1/1;
 99/9=1/99;
 ---------------------
 geometry optimization
 ---------------------
 Symbolic Z-matrix:
 Charge =  0 Multiplicity = 1
 C                    -3.04332  -0.05606   0.90181 
 C                    -2.40774  -1.26206   0.54825 
 C                    -1.28298  -1.26561  -0.26951 
 C                    -0.74472  -0.06354  -0.76875 
 C                     0.74327   0.07165  -0.76969 
 C                     1.60528  -1.04588  -0.7382 
 C                     2.72965  -1.05849   0.0845 
 C                     3.04151   0.0458    0.90886 
 C                     2.41323   1.25621   0.55189 
 C                     1.28793   1.26831  -0.26408 
 C                    -1.60833   1.05327  -0.73007 
 C                    -2.73537   1.05727   0.09008 
 H                    -2.64571  -2.17465   1.08574 
 H                    -0.70423  -2.18192  -0.32736 
 H                     1.31963  -1.96865  -1.23679 
 H                     3.27282  -1.99318   0.19346 
 H                     2.66214   2.17488   1.07235 
 H                     0.71728   2.18975  -0.32375 
 H                    -1.32307   1.97941  -1.22276 
 H                    -3.28764   1.98625   0.20909 
 H                    -3.84089  -0.02379   1.63653 
 H                     3.83916   0.00672   1.64287 
 

 GradGradGradGradGradGradGradGradGradGradGradGradGradGradGradGradGradGrad
 Berny optimization.
 Initialization pass.
                           ----------------------------
                           !    Initial Parameters    !
                           ! (Angstroms and Degrees)  !
 --------------------------                            --------------------------
 ! Name  Definition              Value          Derivative Info.                !
 --------------------------------------------------------------------------------
 ! R1    R(1,2)                  1.4083         estimate D2E/DX2                !
 ! R2    R(1,12)                 1.4118         estimate D2E/DX2                !
 ! R3    R(1,21)                 1.0849         estimate D2E/DX2                !
 ! R4    R(2,3)                  1.3906         estimate D2E/DX2                !
 ! R5    R(2,13)                 1.0855         estimate D2E/DX2                !
 ! R6    R(3,4)                  1.4085         estimate D2E/DX2                !
 ! R7    R(3,14)                 1.0853         estimate D2E/DX2                !
 ! R8    R(4,5)                  1.4941         estimate D2E/DX2                !
 ! R9    R(4,11)                 1.4123         estimate D2E/DX2                !
 ! R10   R(5,6)                  1.4117         estimate D2E/DX2                !
 ! R11   R(5,10)                 1.4087         estimate D2E/DX2                !
 ! R12   R(6,7)                  1.3933         estimate D2E/DX2                !
 ! R13   R(6,15)                 1.0871         estimate D2E/DX2                !
 ! R14   R(7,8)                  1.4129         estimate D2E/DX2                !
 ! R15   R(7,16)                 1.0865         estimate D2E/DX2                !
 ! R16   R(8,9)                  1.4097         estimate D2E/DX2                !
 ! R17   R(8,22)                 1.0847         estimate D2E/DX2                !
 ! R18   R(9,10)                 1.3901         estimate D2E/DX2                !
 ! R19   R(9,17)                 1.0848         estimate D2E/DX2                !
 ! R20   R(10,18)                1.0855         estimate D2E/DX2                !
 ! R21   R(11,12)                1.3939         estimate D2E/DX2                !
 ! R22   R(11,19)                1.0871         estimate D2E/DX2                !
 ! R23   R(12,20)                1.0873         estimate D2E/DX2                !
 ! A1    A(2,1,12)             115.6266         estimate D2E/DX2                !
 ! A2    A(2,1,21)             121.8214         estimate D2E/DX2                !
 ! A3    A(12,1,21)            121.754          estimate D2E/DX2                !
 ! A4    A(1,2,3)              120.9863         estimate D2E/DX2                !
 ! A5    A(1,2,13)             119.7801         estimate D2E/DX2                !
 ! A6    A(3,2,13)             117.7969         estimate D2E/DX2                !
 ! A7    A(2,3,4)              121.0198         estimate D2E/DX2                !
 ! A8    A(2,3,14)             117.6975         estimate D2E/DX2                !
 ! A9    A(4,3,14)             119.8585         estimate D2E/DX2                !
 ! A10   A(3,4,5)              117.2591         estimate D2E/DX2                !
 ! A11   A(3,4,11)             115.5619         estimate D2E/DX2                !
 ! A12   A(5,4,11)             122.5105         estimate D2E/DX2                !
 ! A13   A(4,5,6)              122.4437         estimate D2E/DX2                !
 ! A14   A(4,5,10)             117.4971         estimate D2E/DX2                !
 ! A15   A(6,5,10)             115.3648         estimate D2E/DX2                !
 ! A16   A(5,6,7)              120.8709         estimate D2E/DX2                !
 ! A17   A(5,6,15)             120.0859         estimate D2E/DX2                !
 ! A18   A(7,6,15)             118.3723         estimate D2E/DX2                !
 ! A19   A(6,7,8)              121.0353         estimate D2E/DX2                !
 ! A20   A(6,7,16)             118.0628         estimate D2E/DX2                !
 ! A21   A(8,7,16)             120.2314         estimate D2E/DX2                !
 ! A22   A(7,8,9)              115.1487         estimate D2E/DX2                !
 ! A23   A(7,8,22)             121.9364         estimate D2E/DX2                !
 ! A24   A(9,8,22)             122.0081         estimate D2E/DX2                !
 ! A25   A(8,9,10)             121.1255         estimate D2E/DX2                !
 ! A26   A(8,9,17)             120.2241         estimate D2E/DX2                !
 ! A27   A(10,9,17)            117.3877         estimate D2E/DX2                !
 ! A28   A(5,10,9)             121.0853         estimate D2E/DX2                !
 ! A29   A(5,10,18)            119.8765         estimate D2E/DX2                !
 ! A30   A(9,10,18)            117.726          estimate D2E/DX2                !
 ! A31   A(4,11,12)            120.8518         estimate D2E/DX2                !
 ! A32   A(4,11,19)            120.0535         estimate D2E/DX2                !
 ! A33   A(12,11,19)           118.4491         estimate D2E/DX2                !
 ! A34   A(1,12,11)            120.8239         estimate D2E/DX2                !
 ! A35   A(1,12,20)            120.0026         estimate D2E/DX2                !
 ! A36   A(11,12,20)           118.5265         estimate D2E/DX2                !
 ! D1    D(12,1,2,3)            17.988          estimate D2E/DX2                !
 ! D2    D(12,1,2,13)         -175.9898         estimate D2E/DX2                !
 ! D3    D(21,1,2,3)          -172.0772         estimate D2E/DX2                !
 ! D4    D(21,1,2,13)           -6.055          estimate D2E/DX2                !
 ! D5    D(2,1,12,11)          -17.9232         estimate D2E/DX2                !
 ! D6    D(2,1,12,20)          171.4313         estimate D2E/DX2                !
 ! D7    D(21,1,12,11)         172.1346         estimate D2E/DX2                !
 ! D8    D(21,1,12,20)           1.4891         estimate D2E/DX2                !
 ! D9    D(1,2,3,4)              0.0235         estimate D2E/DX2                !
 ! D10   D(1,2,3,14)           166.3834         estimate D2E/DX2                !
 ! D11   D(13,2,3,4)          -166.2672         estimate D2E/DX2                !
 ! D12   D(13,2,3,14)            0.0927         estimate D2E/DX2                !
 ! D13   D(2,3,4,5)            138.3919         estimate D2E/DX2                !
 ! D14   D(2,3,4,11)           -18.0472         estimate D2E/DX2                !
 ! D15   D(14,3,4,5)           -27.6767         estimate D2E/DX2                !
 ! D16   D(14,3,4,11)          175.8841         estimate D2E/DX2                !
 ! D17   D(3,4,5,6)             21.94           estimate D2E/DX2                !
 ! D18   D(3,4,5,10)          -132.6326         estimate D2E/DX2                !
 ! D19   D(11,4,5,6)           176.6241         estimate D2E/DX2                !
 ! D20   D(11,4,5,10)           22.0516         estimate D2E/DX2                !
 ! D21   D(3,4,11,12)           18.0477         estimate D2E/DX2                !
 ! D22   D(3,4,11,19)         -171.3037         estimate D2E/DX2                !
 ! D23   D(5,4,11,12)         -137.0317         estimate D2E/DX2                !
 ! D24   D(5,4,11,19)           33.6169         estimate D2E/DX2                !
 ! D25   D(4,5,6,7)           -136.7075         estimate D2E/DX2                !
 ! D26   D(4,5,6,15)            33.7527         estimate D2E/DX2                !
 ! D27   D(10,5,6,7)            18.3633         estimate D2E/DX2                !
 ! D28   D(10,5,6,15)         -171.1764         estimate D2E/DX2                !
 ! D29   D(4,5,10,9)           138.2415         estimate D2E/DX2                !
 ! D30   D(4,5,10,18)          -28.3804         estimate D2E/DX2                !
 ! D31   D(6,5,10,9)           -18.1172         estimate D2E/DX2                !
 ! D32   D(6,5,10,18)          175.2609         estimate D2E/DX2                !
 ! D33   D(5,6,7,8)             -0.1054         estimate D2E/DX2                !
 ! D34   D(5,6,7,16)           170.5301         estimate D2E/DX2                !
 ! D35   D(15,6,7,8)          -170.7255         estimate D2E/DX2                !
 ! D36   D(15,6,7,16)           -0.09           estimate D2E/DX2                !
 ! D37   D(6,7,8,9)            -18.3793         estimate D2E/DX2                !
 ! D38   D(6,7,8,22)           172.3199         estimate D2E/DX2                !
 ! D39   D(16,7,8,9)           171.1868         estimate D2E/DX2                !
 ! D40   D(16,7,8,22)            1.8861         estimate D2E/DX2                !
 ! D41   D(7,8,9,10)            18.6867         estimate D2E/DX2                !
 ! D42   D(7,8,9,17)          -174.4835         estimate D2E/DX2                !
 ! D43   D(22,8,9,10)         -172.021          estimate D2E/DX2                !
 ! D44   D(22,8,9,17)           -5.1913         estimate D2E/DX2                !
 ! D45   D(8,9,10,5)            -0.4663         estimate D2E/DX2                !
 ! D46   D(8,9,10,18)          166.4338         estimate D2E/DX2                !
 ! D47   D(17,9,10,5)         -167.656          estimate D2E/DX2                !
 ! D48   D(17,9,10,18)          -0.7558         estimate D2E/DX2                !
 ! D49   D(4,11,12,1)           -0.0879         estimate D2E/DX2                !
 ! D50   D(4,11,12,20)         170.6928         estimate D2E/DX2                !
 ! D51   D(19,11,12,1)        -170.8834         estimate D2E/DX2                !
 ! D52   D(19,11,12,20)         -0.1026         estimate D2E/DX2                !
 --------------------------------------------------------------------------------
 Trust Radius=3.00D-01 FncErr=1.00D-07 GrdErr=1.00D-06
 Number of steps in this run=    121 maximum allowed number of steps=    132.
 GradGradGradGradGradGradGradGradGradGradGradGradGradGradGradGradGradGrad

                          Input orientation:                          
 ---------------------------------------------------------------------
 Center     Atomic      Atomic             Coordinates (Angstroms)
 Number     Number       Type             X           Y           Z
 ---------------------------------------------------------------------
      1          6           0       -3.043318   -0.056064    0.901810
      2          6           0       -2.407741   -1.262062    0.548249
      3          6           0       -1.282977   -1.265610   -0.269509
      4          6           0       -0.744722   -0.063536   -0.768746
      5          6           0        0.743270    0.071650   -0.769693
      6          6           0        1.605277   -1.045879   -0.738200
      7          6           0        2.729649   -1.058492    0.084497
      8          6           0        3.041509    0.045802    0.908861
      9          6           0        2.413230    1.256210    0.551892
     10          6           0        1.287931    1.268310   -0.264079
     11          6           0       -1.608326    1.053266   -0.730066
     12          6           0       -2.735366    1.057269    0.090084
     13          1           0       -2.645705   -2.174647    1.085744
     14          1           0       -0.704232   -2.181919   -0.327364
     15          1           0        1.319630   -1.968654   -1.236786
     16          1           0        3.272821   -1.993175    0.193464
     17          1           0        2.662139    2.174881    1.072353
     18          1           0        0.717284    2.189749   -0.323752
     19          1           0       -1.323072    1.979405   -1.222755
     20          1           0       -3.287643    1.986245    0.209093
     21          1           0       -3.840886   -0.023790    1.636532
     22          1           0        3.839162    0.006719    1.642873
 ---------------------------------------------------------------------
                    Distance matrix (angstroms):
                    1          2          3          4          5
     1  C    0.000000
     2  C    1.408330   0.000000
     3  C    2.435937   1.390624   0.000000
     4  C    2.841541   2.436508   1.408523   0.000000
     5  C    4.141073   3.666692   2.478735   1.494121   0.000000
     6  C    5.027803   4.219716   2.934274   2.547239   1.411708
     7  C    5.916081   5.162294   4.033533   3.713383   2.439787
     8  C    6.085684   5.615592   4.670068   4.142688   2.846070
     9  C    5.623026   5.439069   4.549310   3.668579   2.436911
    10  C    4.676856   4.551994   3.609757   2.481971   1.408651
    11  C    2.439843   2.762951   2.386451   1.412287   2.548557
    12  C    1.411823   2.386745   2.763061   2.440585   3.716392
    13  H    2.163405   1.085513   2.126050   3.392589   4.469189
    14  H    3.391379   2.124801   1.085318   2.164256   2.714681
    15  H    5.221773   4.192722   2.864168   2.847821   2.170992
    16  H    6.644378   5.738396   4.636700   4.559606   3.404380
    17  H    6.128494   6.147434   5.403842   4.472903   3.390984
    18  H    4.548385   4.737211   3.992930   2.722641   2.164690
    19  H    3.408248   3.849684   3.382367   2.171226   2.848607
    20  H    2.170387   3.382418   3.849975   3.409431   4.568584
    21  H    1.084884   2.184395   3.423158   3.920864   5.178177
    22  H    6.922546   6.467751   5.613585   5.180042   3.925460
                    6          7          8          9         10
     6  C    0.000000
     7  C    1.393270   0.000000
     8  C    2.442814   1.412904   0.000000
     9  C    2.759844   2.382525   1.409698   0.000000
    10  C    2.383479   2.759359   2.438309   1.390055   0.000000
    11  C    3.838453   4.892960   5.032100   4.225815   2.941376
    12  C    4.893921   5.860279   5.921634   5.173092   4.044365
    13  H    4.761485   5.580567   6.107871   6.135846   5.399025
    14  H    2.606378   3.636380   4.530074   4.723599   3.984570
    15  H    1.087058   2.135963   3.409795   3.846437   3.380104
    16  H    2.132152   1.086527   2.173183   3.380217   3.845311
    17  H    3.842962   3.381585   2.168785   1.084800   2.120464
    18  H    3.380767   3.842831   3.393798   2.124731   1.085472
    19  H    4.238203   5.230896   5.228018   4.199087   2.870897
    20  H    5.833679   6.744906   6.656813   5.757640   4.655663
    21  H    6.028657   6.830179   6.921106   6.475246   5.620196
    22  H    3.430410   2.189573   1.084690   2.187407   3.425910
                   11         12         13         14         15
    11  C    0.000000
    12  C    1.393873   0.000000
    13  H    3.846134   3.382996   0.000000
    14  H    3.383190   3.846051   2.401301   0.000000
    15  H    4.238124   5.230658   4.600050   2.229024   0.000000
    16  H    5.827461   6.739006   5.988159   4.015450   2.420986
    17  H    4.769026   5.598836   6.862345   5.680965   4.929841
    18  H    2.620142   3.657125   5.687207   4.596977   4.299857
    19  H    1.087127   2.137395   4.933019   4.301314   4.750920
    20  H    2.138358   1.087276   4.300421   4.933091   6.241695
    21  H    3.427121   2.186862   2.521510   4.284041   6.218471
    22  H    6.033343   6.836609   6.864565   5.414277   4.306109
                   16         17         18         19         20
    16  H    0.000000
    17  H    4.303263   0.000000
    18  H    4.929010   2.394116   0.000000
    19  H    6.237732   4.603003   2.239532   0.000000
    20  H    7.673051   6.015040   4.045340   2.431003   0.000000
    21  H    7.521021   6.887800   5.433174   4.304381   2.526638
    22  H    2.533990   2.532154   4.287115   6.225108   7.534295
                   21         22
    21  H    0.000000
    22  H    7.680111   0.000000
 Stoichiometry    C12H10
 Framework group  C1[X(C12H10)]
 Deg. of freedom    60
 Full point group                 C1      NOp   1
 Largest Abelian subgroup         C1      NOp   1
 Largest concise Abelian subgroup C1      NOp   1
                         Standard orientation:                         
 ---------------------------------------------------------------------
 Center     Atomic      Atomic             Coordinates (Angstroms)
 Number     Number       Type             X           Y           Z
 ---------------------------------------------------------------------
      1          6           0       -3.043318   -0.056064    0.901810
      2          6           0       -2.407741   -1.262062    0.548249
      3          6           0       -1.282977   -1.265610   -0.269509
      4          6           0       -0.744722   -0.063536   -0.768746
      5          6           0        0.743270    0.071650   -0.769693
      6          6           0        1.605277   -1.045879   -0.738200
      7          6           0        2.729649   -1.058492    0.084497
      8          6           0        3.041509    0.045802    0.908861
      9          6           0        2.413230    1.256210    0.551892
     10          6           0        1.287931    1.268310   -0.264079
     11          6           0       -1.608326    1.053266   -0.730066
     12          6           0       -2.735366    1.057269    0.090084
     13          1           0       -2.645705   -2.174647    1.085744
     14          1           0       -0.704232   -2.181919   -0.327364
     15          1           0        1.319630   -1.968654   -1.236786
     16          1           0        3.272821   -1.993175    0.193464
     17          1           0        2.662139    2.174881    1.072353
     18          1           0        0.717284    2.189749   -0.323752
     19          1           0       -1.323072    1.979405   -1.222755
     20          1           0       -3.287643    1.986245    0.209093
     21          1           0       -3.840886   -0.023790    1.636532
     22          1           0        3.839162    0.006719    1.642873
 ---------------------------------------------------------------------
 Rotational constants (GHZ):      2.1779239      0.6373836      0.5672709
 Standard basis: 6-31G(d) (6D, 7F)
 There are   200 symmetry adapted cartesian basis functions of A   symmetry.
 There are   200 symmetry adapted basis functions of A   symmetry.
   200 basis functions,   376 primitive gaussians,   200 cartesian basis functions
    41 alpha electrons       41 beta electrons
       nuclear repulsion energy       607.4394134678 Hartrees.
 NAtoms=   22 NActive=   22 NUniq=   22 SFac= 1.00D+00 NAtFMM=   60 NAOKFM=F Big=F
 Integral buffers will be    131072 words long.
 Raffenetti 2 integral format.
 Two-electron integral symmetry is turned on.
 One-electron integrals computed using PRISM.
 NBasis=   200 RedAO= T EigKep=  6.03D-04  NBF=   200
 NBsUse=   200 1.00D-06 EigRej= -1.00D+00 NBFU=   200
 ExpMin= 1.61D-01 ExpMax= 3.05D+03 ExpMxC= 4.57D+02 IAcc=1 IRadAn=         1 AccDes= 0.00D+00
 Harris functional with IExCor=  402 and IRadAn=       1 diagonalized for initial guess.
 HarFok:  IExCor=  402 AccDes= 0.00D+00 IRadAn=         1 IDoV= 1 UseB2=F ITyADJ=14
 ICtDFT=  3500011 ScaDFX=  1.000000  1.000000  1.000000  1.000000
 FoFCou: FMM=F IPFlag=           0 FMFlag=      100000 FMFlg1=           0
         NFxFlg=           0 DoJE=T BraDBF=F KetDBF=T FulRan=T
         wScrn=  0.000000 ICntrl=     500 IOpCl=  0 I1Cent=   200000004 NGrid=           0
         NMat0=    1 NMatS0=      1 NMatT0=    0 NMatD0=    1 NMtDS0=    0 NMtDT0=    0
 Petite list used in FoFCou.
 Requested convergence on RMS density matrix=1.00D-08 within 128 cycles.
 Requested convergence on MAX density matrix=1.00D-06.
 Requested convergence on             energy=1.00D-06.
 No special actions if energy rises.
 Integral accuracy reduced to 1.0D-05 until final iterations.
 Initial convergence to 1.0D-05 achieved.  Increase integral accuracy.
 SCF Done:  E(RB3LYP) =  -463.254425623     A.U. after   14 cycles
            NFock= 14  Conv=0.47D-08     -V/T= 2.0101

 **********************************************************************

            Population analysis using the SCF density.

 **********************************************************************

 Orbital symmetries:
       Occupied  (A) (A) (A) (A) (A) (A) (A) (A) (A) (A) (A) (A)
                 (A) (A) (A) (A) (A) (A) (A) (A) (A) (A) (A) (A)
                 (A) (A) (A) (A) (A) (A) (A) (A) (A) (A) (A) (A)
                 (A) (A) (A) (A) (A)
       Virtual   (A) (A) (A) (A) (A) (A) (A) (A) (A) (A) (A) (A)
                 (A) (A) (A) (A) (A) (A) (A) (A) (A) (A) (A) (A)
                 (A) (A) (A) (A) (A) (A) (A) (A) (A) (A) (A) (A)
                 (A) (A) (A) (A) (A) (A) (A) (A) (A) (A) (A) (A)
                 (A) (A) (A) (A) (A) (A) (A) (A) (A) (A) (A) (A)
                 (A) (A) (A) (A) (A) (A) (A) (A) (A) (A) (A) (A)
                 (A) (A) (A) (A) (A) (A) (A) (A) (A) (A) (A) (A)
                 (A) (A) (A) (A) (A) (A) (A) (A) (A) (A) (A) (A)
                 (A) (A) (A) (A) (A) (A) (A) (A) (A) (A) (A) (A)
                 (A) (A) (A) (A) (A) (A) (A) (A) (A) (A) (A) (A)
                 (A) (A) (A) (A) (A) (A) (A) (A) (A) (A) (A) (A)
                 (A) (A) (A) (A) (A) (A) (A) (A) (A) (A) (A) (A)
                 (A) (A) (A) (A) (A) (A) (A) (A) (A) (A) (A) (A)
                 (A) (A) (A)
 The electronic state is 1-A.
 Alpha  occ. eigenvalues --  -10.20324 -10.20292 -10.19092 -10.19086 -10.19017
 Alpha  occ. eigenvalues --  -10.18983 -10.18924 -10.18918 -10.18793 -10.18753
 Alpha  occ. eigenvalues --  -10.18746 -10.18720  -0.86476  -0.83952  -0.76934
 Alpha  occ. eigenvalues --   -0.74636  -0.73659  -0.71492  -0.62135  -0.61104
 Alpha  occ. eigenvalues --   -0.57998  -0.57639  -0.52693  -0.49692  -0.47408
 Alpha  occ. eigenvalues --   -0.45444  -0.43597  -0.42350  -0.42011  -0.41972
 Alpha  occ. eigenvalues --   -0.40953  -0.38126  -0.37287  -0.34587  -0.34273
 Alpha  occ. eigenvalues --   -0.33380  -0.32420  -0.26976  -0.25062  -0.24187
 Alpha  occ. eigenvalues --   -0.20667
 Alpha virt. eigenvalues --   -0.03814  -0.00813   0.01456   0.01814   0.09056
 Alpha virt. eigenvalues --    0.10157   0.12393   0.12466   0.13954   0.14720
 Alpha virt. eigenvalues --    0.15715   0.17139   0.17989   0.18409   0.21520
 Alpha virt. eigenvalues --    0.23204   0.27088   0.27244   0.28712   0.29680
 Alpha virt. eigenvalues --    0.30707   0.32338   0.35998   0.37994   0.38261
 Alpha virt. eigenvalues --    0.45128   0.50134   0.52155   0.52408   0.52719
 Alpha virt. eigenvalues --    0.53409   0.54415   0.54976   0.56687   0.58612
 Alpha virt. eigenvalues --    0.59059   0.59611   0.60070   0.60320   0.60856
 Alpha virt. eigenvalues --    0.61228   0.61385   0.61479   0.62481   0.63239
 Alpha virt. eigenvalues --    0.63332   0.64858   0.66907   0.68239   0.68278
 Alpha virt. eigenvalues --    0.70162   0.73831   0.76456   0.82341   0.82835
 Alpha virt. eigenvalues --    0.82965   0.84076   0.84525   0.85079   0.86668
 Alpha virt. eigenvalues --    0.87806   0.90137   0.91973   0.92676   0.92919
 Alpha virt. eigenvalues --    0.93087   0.94052   0.94392   1.00090   1.00998
 Alpha virt. eigenvalues --    1.02154   1.02541   1.04882   1.05654   1.09189
 Alpha virt. eigenvalues --    1.13589   1.15022   1.16751   1.17744   1.18092
 Alpha virt. eigenvalues --    1.23143   1.26369   1.29592   1.36290   1.36883
 Alpha virt. eigenvalues --    1.39886   1.39999   1.46418   1.48778   1.49252
 Alpha virt. eigenvalues --    1.50457   1.51570   1.52024   1.57478   1.60384
 Alpha virt. eigenvalues --    1.62687   1.67420   1.70074   1.76729   1.79354
 Alpha virt. eigenvalues --    1.83263   1.83839   1.85523   1.88533   1.89850
 Alpha virt. eigenvalues --    1.96958   1.98346   1.99555   1.99693   2.02556
 Alpha virt. eigenvalues --    2.02758   2.08564   2.08614   2.10015   2.11829
 Alpha virt. eigenvalues --    2.14069   2.16972   2.20084   2.20445   2.21699
 Alpha virt. eigenvalues --    2.25308   2.28706   2.30393   2.35320   2.37141
 Alpha virt. eigenvalues --    2.38384   2.45122   2.49638   2.54134   2.56721
 Alpha virt. eigenvalues --    2.58468   2.59215   2.60345   2.64042   2.65796
 Alpha virt. eigenvalues --    2.68711   2.72396   2.74394   2.74980   2.77843
 Alpha virt. eigenvalues --    2.78519   2.83056   2.86361   2.97308   3.15222
 Alpha virt. eigenvalues --    3.27208   3.38738   4.07500   4.08957   4.10772
 Alpha virt. eigenvalues --    4.11937   4.13143   4.23242   4.29496   4.33744
 Alpha virt. eigenvalues --    4.38755   4.42887   4.59259   4.72070
          Condensed to atoms (all electrons):
               1          2          3          4          5          6
     1  C    4.879251   0.536292  -0.036201  -0.032367   0.000227   0.000035
     2  C    0.536292   4.883933   0.522391  -0.027946   0.006674   0.000402
     3  C   -0.036201   0.522391   5.000292   0.537481  -0.051952  -0.023602
     4  C   -0.032367  -0.027946   0.537481   4.775732   0.367152  -0.049910
     5  C    0.000227   0.006674  -0.051952   0.367152   4.776231   0.501314
     6  C    0.000035   0.000402  -0.023602  -0.049910   0.501314   5.047802
     7  C    0.000001  -0.000046   0.000991   0.003763  -0.022406   0.521236
     8  C   -0.000002  -0.000007   0.000122   0.000220  -0.032303  -0.036343
     9  C   -0.000007  -0.000004   0.000303   0.006680  -0.027729  -0.046946
    10  C    0.000118   0.000297  -0.000149  -0.051985   0.537266  -0.064729
    11  C   -0.036060  -0.046957  -0.064381   0.500894  -0.049813   0.007939
    12  C    0.533942  -0.021765  -0.043531  -0.022381   0.003765  -0.000083
    13  H   -0.044530   0.360369  -0.042195   0.004538  -0.000165  -0.000021
    14  H    0.004858  -0.044321   0.349517  -0.038658  -0.014118   0.010171
    15  H   -0.000005   0.000204   0.000810  -0.007692  -0.038588   0.351242
    16  H   -0.000000  -0.000001   0.000014  -0.000120   0.004071  -0.041207
    17  H   -0.000000   0.000000   0.000002  -0.000168   0.004635   0.000637
    18  H    0.000012  -0.000022  -0.000226  -0.013895  -0.038744   0.006366
    19  H    0.004791   0.000294   0.005749  -0.038489  -0.007697  -0.000200
    20  H   -0.044412   0.004843   0.000542   0.004007  -0.000118   0.000003
    21  H    0.360019  -0.042573   0.005106   0.000584   0.000006  -0.000001
    22  H    0.000000   0.000000  -0.000003   0.000006   0.000580   0.004874
               7          8          9         10         11         12
     1  C    0.000001  -0.000002  -0.000007   0.000118  -0.036060   0.533942
     2  C   -0.000046  -0.000007  -0.000004   0.000297  -0.046957  -0.021765
     3  C    0.000991   0.000122   0.000303  -0.000149  -0.064381  -0.043531
     4  C    0.003763   0.000220   0.006680  -0.051985   0.500894  -0.022381
     5  C   -0.022406  -0.032303  -0.027729   0.537266  -0.049813   0.003765
     6  C    0.521236  -0.036343  -0.046946  -0.064729   0.007939  -0.000083
     7  C    4.882216   0.532671  -0.021615  -0.043741  -0.000084   0.000001
     8  C    0.532671   4.882104   0.534976  -0.036100   0.000035   0.000001
     9  C   -0.021615   0.534976   4.883671   0.523709   0.000379  -0.000045
    10  C   -0.043741  -0.036100   0.523709   4.998849  -0.023179   0.000996
    11  C   -0.000084   0.000035   0.000379  -0.023179   5.047862   0.520992
    12  C    0.000001   0.000001  -0.000045   0.000996   0.520992   4.880454
    13  H   -0.000001  -0.000000   0.000000   0.000002   0.000628   0.004724
    14  H    0.000325   0.000013  -0.000023  -0.000226   0.006326   0.000335
    15  H   -0.044457   0.004807   0.000289   0.005768  -0.000202   0.000006
    16  H    0.359831  -0.044433   0.004794   0.000568   0.000003  -0.000000
    17  H    0.004701  -0.044631   0.360173  -0.042323  -0.000020  -0.000001
    18  H    0.000322   0.004877  -0.044459   0.349640   0.009959   0.000298
    19  H    0.000006  -0.000005   0.000198   0.000847   0.351231  -0.044482
    20  H   -0.000000  -0.000000  -0.000001   0.000013  -0.041192   0.359978
    21  H    0.000000   0.000000   0.000000  -0.000003   0.004927  -0.042284
    22  H   -0.042089   0.360242  -0.042379   0.005039  -0.000001   0.000000
              13         14         15         16         17         18
     1  C   -0.044530   0.004858  -0.000005  -0.000000  -0.000000   0.000012
     2  C    0.360369  -0.044321   0.000204  -0.000001   0.000000  -0.000022
     3  C   -0.042195   0.349517   0.000810   0.000014   0.000002  -0.000226
     4  C    0.004538  -0.038658  -0.007692  -0.000120  -0.000168  -0.013895
     5  C   -0.000165  -0.014118  -0.038588   0.004071   0.004635  -0.038744
     6  C   -0.000021   0.010171   0.351242  -0.041207   0.000637   0.006366
     7  C   -0.000001   0.000325  -0.044457   0.359831   0.004701   0.000322
     8  C   -0.000000   0.000013   0.004807  -0.044433  -0.044631   0.004877
     9  C    0.000000  -0.000023   0.000289   0.004794   0.360173  -0.044459
    10  C    0.000002  -0.000226   0.005768   0.000568  -0.042323   0.349640
    11  C    0.000628   0.006326  -0.000202   0.000003  -0.000020   0.009959
    12  C    0.004724   0.000335   0.000006  -0.000000  -0.000001   0.000298
    13  H    0.599173  -0.007334   0.000006   0.000000   0.000000   0.000000
    14  H   -0.007334   0.599966   0.002728   0.000028   0.000000  -0.000006
    15  H    0.000006   0.002728   0.598619  -0.007146   0.000015  -0.000192
    16  H    0.000000   0.000028  -0.007146   0.599103  -0.000206   0.000014
    17  H    0.000000   0.000000   0.000015  -0.000206   0.599911  -0.007501
    18  H    0.000000  -0.000006  -0.000192   0.000014  -0.007501   0.600463
    19  H    0.000015  -0.000190  -0.000000   0.000000   0.000006   0.002720
    20  H   -0.000206   0.000014   0.000000   0.000000   0.000000   0.000025
    21  H   -0.004764  -0.000156  -0.000000  -0.000000  -0.000000  -0.000000
    22  H   -0.000000  -0.000000  -0.000144  -0.004591  -0.004646  -0.000153
              19         20         21         22
     1  C    0.004791  -0.044412   0.360019   0.000000
     2  C    0.000294   0.004843  -0.042573   0.000000
     3  C    0.005749   0.000542   0.005106  -0.000003
     4  C   -0.038489   0.004007   0.000584   0.000006
     5  C   -0.007697  -0.000118   0.000006   0.000580
     6  C   -0.000200   0.000003  -0.000001   0.004874
     7  C    0.000006  -0.000000   0.000000  -0.042089
     8  C   -0.000005  -0.000000   0.000000   0.360242
     9  C    0.000198  -0.000001   0.000000  -0.042379
    10  C    0.000847   0.000013  -0.000003   0.005039
    11  C    0.351231  -0.041192   0.004927  -0.000001
    12  C   -0.044482   0.359978  -0.042284   0.000000
    13  H    0.000015  -0.000206  -0.004764  -0.000000
    14  H   -0.000190   0.000014  -0.000156  -0.000000
    15  H   -0.000000   0.000000  -0.000000  -0.000144
    16  H    0.000000   0.000000  -0.000000  -0.004591
    17  H    0.000006   0.000000  -0.000000  -0.004646
    18  H    0.002720   0.000025  -0.000000  -0.000153
    19  H    0.598395  -0.006965  -0.000147  -0.000000
    20  H   -0.006965   0.598593  -0.004692  -0.000000
    21  H   -0.000147  -0.004692   0.590557  -0.000000
    22  H   -0.000000  -0.000000  -0.000000   0.589288
 Mulliken charges:
               1
     1  C   -0.125963
     2  C   -0.132056
     3  C   -0.161079
     4  C    0.082554
     5  C    0.081714
     6  C   -0.188979
     7  C   -0.131625
     8  C   -0.126242
     9  C   -0.131965
    10  C   -0.160674
    11  C   -0.189286
    12  C   -0.130922
    13  H    0.129761
    14  H    0.130749
    15  H    0.133934
    16  H    0.129277
    17  H    0.129415
    18  H    0.130499
    19  H    0.133924
    20  H    0.129567
    21  H    0.133421
    22  H    0.133978
 Sum of Mulliken charges =  -0.00000
 Mulliken charges with hydrogens summed into heavy atoms:
               1
     1  C    0.007458
     2  C   -0.002294
     3  C   -0.030330
     4  C    0.082554
     5  C    0.081714
     6  C   -0.055046
     7  C   -0.002348
     8  C    0.007736
     9  C   -0.002551
    10  C   -0.030175
    11  C   -0.055362
    12  C   -0.001356
 Electronic spatial extent (au):  <R**2>=           2063.4247
 Charge=             -0.0000 electrons
 Dipole moment (field-independent basis, Debye):
    X=              0.0020    Y=              0.0028    Z=              0.9161  Tot=              0.9161
 Quadrupole moment (field-independent basis, Debye-Ang):
   XX=            -66.9484   YY=            -62.2283   ZZ=            -70.6845
   XY=             -2.1676   XZ=             -0.0189   YZ=             -0.0168
 Traceless Quadrupole moment (field-independent basis, Debye-Ang):
   XX=             -0.3280   YY=              4.3921   ZZ=             -4.0641
   XY=             -2.1676   XZ=             -0.0189   YZ=             -0.0168
 Octapole moment (field-independent basis, Debye-Ang**2):
  XXX=              0.0115  YYY=              0.1088  ZZZ=              5.2941  XYY=              0.0826
  XXY=              0.1490  XXZ=             26.7375  XZZ=              0.0033  YZZ=             -0.0975
  YYZ=              0.3427  XYZ=              5.7797
 Hexadecapole moment (field-independent basis, Debye-Ang**3):
 XXXX=          -2020.4517 YYYY=           -512.8899 ZZZZ=           -270.6732 XXXY=            -37.1656
 XXXZ=              0.0437 YYYX=             -8.2019 YYYZ=             -0.0745 ZZZX=             -0.0039
 ZZZY=             -0.0997 XXYY=           -404.4864 XXZZ=           -370.7940 YYZZ=           -133.6498
 XXYZ=             -0.0469 YYXZ=             -0.2222 ZZXY=              3.0132
 N-N= 6.074394134678D+02 E-N=-2.286999936212D+03  KE= 4.586104481644D+02
 Calling FoFJK, ICntrl=      2127 FMM=F ISym2X=0 I1Cent= 0 IOpClX= 0 NMat=1 NMatS=1 NMatT=0.
 ***** Axes restored to original set *****
 -------------------------------------------------------------------
 Center     Atomic                   Forces (Hartrees/Bohr)
 Number     Number              X              Y              Z
 -------------------------------------------------------------------
      1        6          -0.001094197   -0.005140397   -0.031477152
      2        6          -0.002082831    0.006820559    0.016725674
      3        6           0.005656474    0.000910601    0.003494303
      4        6          -0.005175092    0.000472820    0.000352209
      5        6           0.005224227   -0.000369636    0.000749632
      6        6          -0.004949033   -0.001370699    0.001266423
      7        6           0.000144826    0.000901590    0.013798549
      8        6           0.000283309    0.005782108   -0.033606966
      9        6           0.002532481   -0.006527442    0.016626566
     10        6          -0.006117107   -0.001017438    0.002492165
     11        6           0.004561633    0.001414222    0.001390798
     12        6           0.000092394   -0.001362882    0.012821125
     13        1          -0.003810008   -0.002217168   -0.002066914
     14        1           0.000467362    0.000208305   -0.000271592
     15        1          -0.000639879   -0.000025996    0.000088059
     16        1           0.002115320    0.000164221   -0.000575508
     17        1           0.003979265    0.001923896   -0.000715601
     18        1          -0.000512269   -0.000234989   -0.000131262
     19        1           0.000681782    0.000035549    0.000195993
     20        1          -0.001359267   -0.000367203   -0.001117490
     21        1           0.000021073    0.000001326   -0.000019307
     22        1          -0.000020464   -0.000001351   -0.000019702
 -------------------------------------------------------------------
 Cartesian Forces:  Max     0.033606966 RMS     0.007225663

 GradGradGradGradGradGradGradGradGradGradGradGradGradGradGradGradGradGrad
 Berny optimization.
 FormGI is forming the generalized inverse of G from B-inverse, IUseBI=4.
 Internal  Forces:  Max     0.015220815 RMS     0.005114376
 Search for a local minimum.
 Step number   1 out of a maximum of  121
 All quantities printed in internal units (Hartrees-Bohrs-Radians)
 Mixed Optimization -- RFO/linear search
 Second derivative matrix not updated -- first step.
 ITU=  0
     Eigenvalues ---    0.00844   0.01958   0.01962   0.01981   0.01991
     Eigenvalues ---    0.02068   0.02069   0.02102   0.02106   0.02110
     Eigenvalues ---    0.02110   0.02137   0.02137   0.02170   0.02179
     Eigenvalues ---    0.02196   0.02208   0.02322   0.02333   0.15404
     Eigenvalues ---    0.15442   0.15652   0.15661   0.15720   0.15730
     Eigenvalues ---    0.15804   0.15812   0.15872   0.15876   0.21536
     Eigenvalues ---    0.21558   0.21603   0.21625   0.22664   0.22666
     Eigenvalues ---    0.22852   0.22871   0.33002   0.35129   0.35147
     Eigenvalues ---    0.35155   0.35217   0.35336   0.35341   0.35359
     Eigenvalues ---    0.35411   0.35421   0.35434   0.39877   0.39936
     Eigenvalues ---    0.40680   0.40734   0.43494   0.43597   0.43883
     Eigenvalues ---    0.43956   0.45364   0.45390   0.46964   0.47063
 RFO step:  Lambda=-3.68933162D-02 EMin= 8.43720735D-03
 Linear search not attempted -- first point.
 Iteration  1 RMS(Cart)=  0.25335003 RMS(Int)=  0.01866897
 Iteration  2 RMS(Cart)=  0.04030887 RMS(Int)=  0.00128928
 Iteration  3 RMS(Cart)=  0.00111444 RMS(Int)=  0.00120034
 Iteration  4 RMS(Cart)=  0.00000087 RMS(Int)=  0.00120034
 Variable       Old X    -DE/DX   Delta X   Delta X   Delta X     New X
                                 (Linear)    (Quad)   (Total)
    R1        2.66136  -0.00960   0.00000  -0.01996  -0.02044   2.64092
    R2        2.66796  -0.01059   0.00000  -0.02227  -0.02276   2.64520
    R3        2.05013  -0.00003   0.00000  -0.00007  -0.00007   2.05006
    R4        2.62790   0.00459   0.00000   0.00917   0.00924   2.63714
    R5        2.05132   0.00168   0.00000   0.00430   0.00430   2.05562
    R6        2.66172   0.00190   0.00000   0.00407   0.00462   2.66634
    R7        2.05095   0.00009   0.00000   0.00023   0.00023   2.05118
    R8        2.82348   0.00196   0.00000   0.00535   0.00535   2.82883
    R9        2.66884  -0.00077   0.00000  -0.00187  -0.00147   2.66737
   R10        2.66774  -0.00022   0.00000  -0.00061  -0.00016   2.66758
   R11        2.66196   0.00190   0.00000   0.00417   0.00470   2.66667
   R12        2.63290  -0.00029   0.00000  -0.00078  -0.00080   2.63210
   R13        2.05424   0.00015   0.00000   0.00038   0.00038   2.05463
   R14        2.67000  -0.01139   0.00000  -0.02420  -0.02469   2.64532
   R15        2.05324   0.00086   0.00000   0.00220   0.00220   2.05544
   R16        2.66394  -0.01050   0.00000  -0.02197  -0.02249   2.64146
   R17        2.04977  -0.00003   0.00000  -0.00007  -0.00007   2.04969
   R18        2.62682   0.00492   0.00000   0.00986   0.00988   2.63671
   R19        2.04998   0.00220   0.00000   0.00562   0.00562   2.05560
   R20        2.05124   0.00008   0.00000   0.00020   0.00020   2.05144
   R21        2.63404  -0.00096   0.00000  -0.00206  -0.00212   2.63192
   R22        2.05437   0.00012   0.00000   0.00031   0.00031   2.05468
   R23        2.05465   0.00025   0.00000   0.00065   0.00065   2.05531
    A1        2.01807   0.00840   0.00000   0.04034   0.03802   2.05609
    A2        2.12618  -0.00380   0.00000  -0.01342  -0.01373   2.11245
    A3        2.12501  -0.00390   0.00000  -0.01413  -0.01446   2.11055
    A4        2.11161  -0.00327   0.00000  -0.00443  -0.00704   2.10457
    A5        2.09056   0.00150   0.00000   0.00893   0.00768   2.09824
    A6        2.05594   0.00306   0.00000   0.01784   0.01671   2.07265
    A7        2.11219   0.00048   0.00000   0.01024   0.00872   2.12091
    A8        2.05421   0.00198   0.00000   0.01401   0.01234   2.06654
    A9        2.09193  -0.00124   0.00000  -0.00213  -0.00385   2.08807
   A10        2.04656   0.00697   0.00000   0.03956   0.03677   2.08333
   A11        2.01694  -0.00207   0.00000   0.00945   0.00639   2.02332
   A12        2.13821  -0.00201   0.00000   0.00563   0.00213   2.14034
   A13        2.13704  -0.00138   0.00000   0.00789   0.00456   2.14161
   A14        2.05071   0.00590   0.00000   0.03535   0.03258   2.08329
   A15        2.01350  -0.00163   0.00000   0.01161   0.00835   2.02185
   A16        2.10959   0.00195   0.00000   0.01348   0.01173   2.12133
   A17        2.09589  -0.00197   0.00000  -0.00626  -0.00749   2.08840
   A18        2.06599   0.00083   0.00000   0.00695   0.00563   2.07161
   A19        2.11246  -0.00243   0.00000  -0.00365  -0.00612   2.10634
   A20        2.06058   0.00257   0.00000   0.01378   0.01329   2.07388
   A21        2.09843   0.00063   0.00000   0.00277   0.00215   2.10058
   A22        2.00972   0.00981   0.00000   0.04649   0.04390   2.05363
   A23        2.12819  -0.00452   0.00000  -0.01613  -0.01655   2.11164
   A24        2.12944  -0.00447   0.00000  -0.01568  -0.01610   2.11335
   A25        2.11404  -0.00364   0.00000  -0.00584  -0.00854   2.10550
   A26        2.09831   0.00072   0.00000   0.00377   0.00275   2.10105
   A27        2.04880   0.00408   0.00000   0.02207   0.02125   2.07005
   A28        2.11334   0.00020   0.00000   0.00954   0.00795   2.12128
   A29        2.09224  -0.00117   0.00000  -0.00269  -0.00410   2.08814
   A30        2.05471   0.00208   0.00000   0.01333   0.01190   2.06660
   A31        2.10926   0.00218   0.00000   0.01366   0.01199   2.12125
   A32        2.09533  -0.00206   0.00000  -0.00639  -0.00763   2.08770
   A33        2.06733   0.00067   0.00000   0.00649   0.00518   2.07250
   A34        2.10877  -0.00172   0.00000  -0.00115  -0.00349   2.10529
   A35        2.09444   0.00100   0.00000   0.00510   0.00446   2.09890
   A36        2.06868   0.00148   0.00000   0.00860   0.00806   2.07674
    D1        0.31395  -0.00703   0.00000  -0.12591  -0.12634   0.18761
    D2       -3.07160  -0.00039   0.00000  -0.01657  -0.01725  -3.08885
    D3       -3.00331  -0.00294   0.00000  -0.04714  -0.04693  -3.05024
    D4       -0.10568   0.00371   0.00000   0.06220   0.06216  -0.04352
    D5       -0.31282   0.00699   0.00000   0.12796   0.12842  -0.18440
    D6        2.99204   0.00137   0.00000   0.03714   0.03803   3.03008
    D7        3.00432   0.00289   0.00000   0.04917   0.04902   3.05334
    D8        0.02599  -0.00273   0.00000  -0.04165  -0.04136  -0.01537
    D9        0.00041   0.00131   0.00000   0.01126   0.01057   0.01098
   D10        2.90394   0.00694   0.00000   0.11513   0.11544   3.01938
   D11       -2.90191  -0.00502   0.00000  -0.09485  -0.09579  -2.99770
   D12        0.00162   0.00062   0.00000   0.00902   0.00908   0.01070
   D13        2.41539   0.01317   0.00000   0.24029   0.24123   2.65662
   D14       -0.31498   0.00681   0.00000   0.10886   0.10814  -0.20684
   D15       -0.48305   0.00697   0.00000   0.13197   0.13289  -0.35016
   D16        3.06976   0.00061   0.00000   0.00055  -0.00020   3.06956
   D17        0.38292   0.00181   0.00000   0.03984   0.03980   0.42273
   D18       -2.31488  -0.00527   0.00000  -0.10395  -0.10518  -2.42006
   D19        3.08267   0.00884   0.00000   0.18284   0.18407  -3.01644
   D20        0.38487   0.00177   0.00000   0.03905   0.03909   0.42396
   D21        0.31499  -0.00619   0.00000  -0.10506  -0.10478   0.21021
   D22       -2.98981  -0.00045   0.00000  -0.00561  -0.00557  -2.99538
   D23       -2.39165  -0.01522   0.00000  -0.25290  -0.25164  -2.64329
   D24        0.58673  -0.00949   0.00000  -0.15345  -0.15242   0.43430
   D25       -2.38600  -0.01508   0.00000  -0.25321  -0.25223  -2.63823
   D26        0.58910  -0.00932   0.00000  -0.15263  -0.15178   0.43732
   D27        0.32050  -0.00637   0.00000  -0.10664  -0.10622   0.21428
   D28       -2.98759  -0.00061   0.00000  -0.00605  -0.00576  -2.99335
   D29        2.41277   0.01332   0.00000   0.24053   0.24129   2.65406
   D30       -0.49533   0.00744   0.00000   0.13747   0.13815  -0.35718
   D31       -0.31620   0.00685   0.00000   0.10835   0.10751  -0.20870
   D32        3.05888   0.00097   0.00000   0.00529   0.00436   3.06324
   D33       -0.00184  -0.00207   0.00000  -0.01816  -0.01692  -0.01876
   D34        2.97631   0.00341   0.00000   0.07148   0.07260   3.04891
   D35       -2.97972  -0.00746   0.00000  -0.11581  -0.11521  -3.09493
   D36       -0.00157  -0.00198   0.00000  -0.02617  -0.02569  -0.02726
   D37       -0.32078   0.00717   0.00000   0.13160   0.13211  -0.18867
   D38        3.00755   0.00281   0.00000   0.04725   0.04695   3.05450
   D39        2.98777   0.00140   0.00000   0.03903   0.04020   3.02798
   D40        0.03292  -0.00296   0.00000  -0.04532  -0.04496  -0.01204
   D41        0.32615  -0.00732   0.00000  -0.13158  -0.13205   0.19409
   D42       -3.04531  -0.00079   0.00000  -0.02587  -0.02696  -3.07227
   D43       -3.00233  -0.00296   0.00000  -0.04721  -0.04685  -3.04918
   D44       -0.09060   0.00357   0.00000   0.05850   0.05824  -0.03236
   D45       -0.00814   0.00172   0.00000   0.01646   0.01560   0.00746
   D46        2.90482   0.00705   0.00000   0.11531   0.11545   3.02026
   D47       -2.92615  -0.00425   0.00000  -0.08416  -0.08539  -3.01154
   D48       -0.01319   0.00109   0.00000   0.01469   0.01445   0.00126
   D49       -0.00153  -0.00199   0.00000  -0.01736  -0.01623  -0.01776
   D50        2.97915   0.00352   0.00000   0.07184   0.07271   3.05186
   D51       -2.98248  -0.00738   0.00000  -0.11406  -0.11342  -3.09590
   D52       -0.00179  -0.00188   0.00000  -0.02485  -0.02449  -0.02628
         Item               Value     Threshold  Converged?
 Maximum Force            0.015221     0.000450     NO 
 RMS     Force            0.005114     0.000300     NO 
 Maximum Displacement     0.903331     0.001800     NO 
 RMS     Displacement     0.276902     0.001200     NO 
 Predicted change in Energy=-2.971074D-02
 GradGradGradGradGradGradGradGradGradGradGradGradGradGradGradGradGradGrad

                          Input orientation:                          
 ---------------------------------------------------------------------
 Center     Atomic      Atomic             Coordinates (Angstroms)
 Number     Number       Type             X           Y           Z
 ---------------------------------------------------------------------
      1          6           0       -3.353640   -0.107752    0.651584
      2          6           0       -2.617729   -1.287410    0.510569
      3          6           0       -1.340987   -1.264789   -0.052347
      4          6           0       -0.746248   -0.060182   -0.483664
      5          6           0        0.745673    0.062425   -0.485456
      6          6           0        1.602824   -1.056445   -0.563600
      7          6           0        2.875148   -1.040609    0.002934
      8          6           0        3.353553    0.103210    0.652827
      9          6           0        2.618601    1.284006    0.513508
     10          6           0        1.341696    1.264599   -0.048590
     11          6           0       -1.602111    1.060038   -0.554137
     12          6           0       -2.875084    1.040947    0.010601
     13          1           0       -2.979160   -2.214137    0.950824
     14          1           0       -0.755084   -2.178433   -0.040211
     15          1           0        1.246841   -1.975892   -1.021892
     16          1           0        3.464874   -1.954507   -0.006658
     17          1           0        2.983351    2.213268    0.945583
     18          1           0        0.757683    2.179604   -0.035477
     19          1           0       -1.244566    1.981788   -1.006615
     20          1           0       -3.467316    1.953178    0.006413
     21          1           0       -4.310120   -0.103036    1.163456
     22          1           0        4.309715    0.095807    1.164851
 ---------------------------------------------------------------------
                    Distance matrix (angstroms):
                    1          2          3          4          5
     1  C    0.000000
     2  C    1.397514   0.000000
     3  C    2.425907   1.395512   0.000000
     4  C    2.844213   2.448883   1.410967   0.000000
     5  C    4.257486   3.758536   2.510624   1.496951   0.000000
     6  C    5.190687   4.361221   2.995131   2.552855   1.411625
     7  C    6.331570   5.521802   4.222453   3.783190   2.447422
     8  C    6.710510   6.132721   4.940385   4.257543   2.845767
     9  C    6.133818   5.833639   4.742878   3.758112   2.449091
    10  C    4.941637   4.743675   3.687086   2.510745   1.411140
    11  C    2.425974   2.770486   2.392655   1.411510   2.551870
    12  C    1.399780   2.395297   2.770168   2.447187   3.783313
    13  H    2.160240   1.087787   2.142714   3.418066   4.595652
    14  H    3.393935   2.136990   1.085438   2.164190   2.733489
    15  H    5.239742   4.213946   2.853514   2.816388   2.166488
    16  H    7.094782   6.140896   4.855317   4.642149   3.419257
    17  H    6.755074   6.619371   5.638496   4.595783   3.417777
    18  H    4.754685   4.869472   4.033429   2.734835   2.164503
    19  H    3.400588   3.856823   3.385290   2.165973   2.813648
    20  H    2.162545   3.387829   3.857464   3.420234   4.643937
    21  H    1.084845   2.166378   3.412271   3.926325   5.320464
    22  H    7.683221   7.094423   5.938285   5.320215   3.927724
                    6          7          8          9         10
     6  C    0.000000
     7  C    1.392846   0.000000
     8  C    2.426839   1.399841   0.000000
     9  C    2.769418   2.393812   1.397799   0.000000
    10  C    2.391792   2.769136   2.426599   1.395285   0.000000
    11  C    3.840729   4.976836   5.189498   4.359408   2.993897
    12  C    4.977993   6.115399   6.331487   5.522008   4.223121
    13  H    4.962692   6.045543   6.749975   6.615375   5.636509
    14  H    2.663179   3.804615   4.750484   4.865886   4.031256
    15  H    1.087261   2.139253   3.400821   3.855660   3.384833
    16  H    2.141012   1.087694   2.163680   3.387435   3.856460
    17  H    3.856749   3.389397   2.162198   1.087777   2.140884
    18  H    3.386029   3.854207   3.394660   2.136937   1.085577
    19  H    4.187452   5.208274   5.236936   4.209719   2.849723
    20  H    5.923602   7.013531   7.096794   6.143559   4.858370
    21  H    6.233347   7.338524   7.683435   7.096020   5.939908
    22  H    3.412109   2.167827   1.084651   2.167009   3.412865
                   11         12         13         14         15
    11  C    0.000000
    12  C    1.392750   0.000000
    13  H    3.857641   3.389753   0.000000
    14  H    3.386631   3.855047   2.435147   0.000000
    15  H    4.189534   5.211298   4.669846   2.238845   0.000000
    16  H    5.921280   7.011998   6.519951   4.226029   2.439432
    17  H    4.960399   6.047296   7.426539   5.851045   4.943226
    18  H    2.662905   3.807317   5.851646   4.613131   4.298888
    19  H    1.087290   2.139743   4.944308   4.298950   4.676599
    20  H    2.142639   1.087622   4.300782   4.942528   6.222401
    21  H    3.411184   2.167280   2.504679   4.288866   6.258047
    22  H    6.231721   7.338046   7.649140   5.681244   4.295925
                   16         17         18         19         20
    16  H    0.000000
    17  H    4.302205   0.000000
    18  H    4.941719   2.432531   0.000000
    19  H    6.218775   4.662611   2.234108   0.000000
    20  H    7.957727   6.523863   4.231269   2.442880   0.000000
    21  H    8.077602   7.655550   5.685993   4.295733   2.505411
    22  H    2.507982   2.508179   4.289514   6.254776   8.079233
                   21         22
    21  H    0.000000
    22  H    8.622128   0.000000
 Stoichiometry    C12H10
 Framework group  C1[X(C12H10)]
 Deg. of freedom    60
 Full point group                 C1      NOp   1
 Largest Abelian subgroup         C1      NOp   1
 Largest concise Abelian subgroup C1      NOp   1
                         Standard orientation:                         
 ---------------------------------------------------------------------
 Center     Atomic      Atomic             Coordinates (Angstroms)
 Number     Number       Type             X           Y           Z
 ---------------------------------------------------------------------
      1          6           0       -3.355694   -0.029960    0.613009
      2          6           0       -2.646773   -1.226348    0.474687
      3          6           0       -1.369597   -1.233924   -0.087646
      4          6           0       -0.747389   -0.044031   -0.521052
      5          6           0        0.746938    0.044567   -0.522355
      6          6           0        1.578422   -1.093684   -0.597867
      7          6           0        2.850525   -1.105698   -0.030742
      8          6           0        3.354563    0.028220    0.617124
      9          6           0        2.646753    1.225166    0.475110
     10          6           0        1.369987    1.233723   -0.087575
     11          6           0       -1.577489    1.095244   -0.594159
     12          6           0       -2.850818    1.106268   -0.030009
     13          1           0       -3.029410   -2.143728    0.916596
     14          1           0       -0.804657   -2.160647   -0.073418
     15          1           0        1.201799   -2.005695   -1.054515
     16          1           0        3.419291   -2.032805   -0.038238
     17          1           0        3.032377    2.146738    0.905526
     18          1           0        0.806957    2.161814   -0.076557
     19          1           0       -1.198845    2.007713   -1.048284
     20          1           0       -3.422121    2.031737   -0.036291
     21          1           0       -4.312046   -0.002448    1.124401
     22          1           0        4.310080    0.000064    1.129630
 ---------------------------------------------------------------------
 Rotational constants (GHZ):      2.5005675      0.5798887      0.5047777
 Standard basis: 6-31G(d) (6D, 7F)
 There are   200 symmetry adapted cartesian basis functions of A   symmetry.
 There are   200 symmetry adapted basis functions of A   symmetry.
   200 basis functions,   376 primitive gaussians,   200 cartesian basis functions
    41 alpha electrons       41 beta electrons
       nuclear repulsion energy       601.0197261439 Hartrees.
 NAtoms=   22 NActive=   22 NUniq=   22 SFac= 1.00D+00 NAtFMM=   60 NAOKFM=F Big=F
 Integral buffers will be    131072 words long.
 Raffenetti 2 integral format.
 Two-electron integral symmetry is turned on.
 One-electron integrals computed using PRISM.
 NBasis=   200 RedAO= T EigKep=  4.90D-04  NBF=   200
 NBsUse=   200 1.00D-06 EigRej= -1.00D+00 NBFU=   200
 Initial guess from the checkpoint file:  "/tmp/Gau-72173.chk"
 B after Tr=     0.000000   -0.000000    0.000000
         Rot=    0.999940    0.001138    0.000076    0.010904 Ang=   1.26 deg.
 ExpMin= 1.61D-01 ExpMax= 3.05D+03 ExpMxC= 4.57D+02 IAcc=1 IRadAn=         1 AccDes= 0.00D+00
 Harris functional with IExCor=  402 and IRadAn=       1 diagonalized for initial guess.
 HarFok:  IExCor=  402 AccDes= 0.00D+00 IRadAn=         1 IDoV= 1 UseB2=F ITyADJ=14
 ICtDFT=  3500011 ScaDFX=  1.000000  1.000000  1.000000  1.000000
 FoFCou: FMM=F IPFlag=           0 FMFlag=      100000 FMFlg1=           0
         NFxFlg=           0 DoJE=T BraDBF=F KetDBF=T FulRan=T
         wScrn=  0.000000 ICntrl=     500 IOpCl=  0 I1Cent=   200000004 NGrid=           0
         NMat0=    1 NMatS0=      1 NMatT0=    0 NMatD0=    1 NMtDS0=    0 NMtDT0=    0
 Petite list used in FoFCou.
 Requested convergence on RMS density matrix=1.00D-08 within 128 cycles.
 Requested convergence on MAX density matrix=1.00D-06.
 Requested convergence on             energy=1.00D-06.
 No special actions if energy rises.
 Integral accuracy reduced to 1.0D-05 until final iterations.
 Initial convergence to 1.0D-05 achieved.  Increase integral accuracy.
 SCF Done:  E(RB3LYP) =  -463.283899187     A.U. after   14 cycles
            NFock= 14  Conv=0.87D-08     -V/T= 2.0101
 Calling FoFJK, ICntrl=      2127 FMM=F ISym2X=0 I1Cent= 0 IOpClX= 0 NMat=1 NMatS=1 NMatT=0.
 ***** Axes restored to original set *****
 -------------------------------------------------------------------
 Center     Atomic                   Forces (Hartrees/Bohr)
 Number     Number              X              Y              Z
 -------------------------------------------------------------------
      1        6           0.000317409   -0.002391049   -0.013508095
      2        6           0.001100743    0.001083080    0.005778722
      3        6           0.003643078    0.001324733    0.002479383
      4        6          -0.004136359   -0.000019814    0.001571330
      5        6           0.004371434   -0.000054117    0.001923826
      6        6          -0.005457620   -0.001353024   -0.000537176
      7        6           0.000647207   -0.001135203    0.003615018
      8        6          -0.000583487    0.002652953   -0.014101913
      9        6          -0.000898091   -0.000661707    0.005435318
     10        6          -0.003729587   -0.001383960    0.002104576
     11        6           0.005205372    0.001443228   -0.000716199
     12        6          -0.000751649    0.000734497    0.003374945
     13        1          -0.001200607   -0.000103071   -0.002182084
     14        1           0.000947374    0.000286622    0.001566467
     15        1          -0.000990237   -0.000509299    0.001733699
     16        1           0.000505688    0.000725079   -0.000325928
     17        1           0.001219345   -0.000192489   -0.001564474
     18        1          -0.000890166   -0.000371811    0.001658643
     19        1           0.000904392    0.000503275    0.001764062
     20        1          -0.000315644   -0.000571487   -0.000419511
     21        1          -0.000775532   -0.000103930    0.000158899
     22        1           0.000866938    0.000097494    0.000190496
 -------------------------------------------------------------------
 Cartesian Forces:  Max     0.014101913 RMS     0.003168110

 GradGradGradGradGradGradGradGradGradGradGradGradGradGradGradGradGradGrad
 Berny optimization.
 Using GEDIIS/GDIIS optimizer.
 FormGI is forming the generalized inverse of G from B-inverse, IUseBI=4.
 Internal  Forces:  Max     0.009568050 RMS     0.002925663
 Search for a local minimum.
 Step number   2 out of a maximum of  121
 All quantities printed in internal units (Hartrees-Bohrs-Radians)
 Mixed Optimization -- RFO/linear search
 Update second derivatives using D2CorX and points    1    2
 DE= -2.95D-02 DEPred=-2.97D-02 R= 9.92D-01
 TightC=F SS=  1.41D+00  RLast= 7.78D-01 DXNew= 5.0454D-01 2.3336D+00
 Trust test= 9.92D-01 RLast= 7.78D-01 DXMaxT set to 5.05D-01
 ITU=  1  0
 Use linear search instead of GDIIS.
     Eigenvalues ---    0.00846   0.01650   0.01826   0.01942   0.01954
     Eigenvalues ---    0.01967   0.02005   0.02039   0.02047   0.02057
     Eigenvalues ---    0.02062   0.02080   0.02083   0.02114   0.02118
     Eigenvalues ---    0.02120   0.02135   0.02140   0.02614   0.15815
     Eigenvalues ---    0.15830   0.15853   0.15902   0.15916   0.15930
     Eigenvalues ---    0.15959   0.15962   0.15964   0.15977   0.21021
     Eigenvalues ---    0.21847   0.21863   0.21870   0.23061   0.23382
     Eigenvalues ---    0.23684   0.23907   0.33262   0.35131   0.35147
     Eigenvalues ---    0.35155   0.35221   0.35341   0.35346   0.35360
     Eigenvalues ---    0.35408   0.35427   0.35463   0.40144   0.40510
     Eigenvalues ---    0.40900   0.40940   0.43383   0.43746   0.43848
     Eigenvalues ---    0.43928   0.45385   0.45417   0.46994   0.47157
 RFO step:  Lambda=-8.44639596D-03 EMin= 8.46359826D-03
 Quartic linear search produced a step of  1.46110.
 Iteration  1 RMS(Cart)=  0.26655903 RMS(Int)=  0.05835860
 Iteration  2 RMS(Cart)=  0.18674605 RMS(Int)=  0.01119966
 Iteration  3 RMS(Cart)=  0.02251990 RMS(Int)=  0.00437128
 Iteration  4 RMS(Cart)=  0.00007586 RMS(Int)=  0.00437109
 Iteration  5 RMS(Cart)=  0.00000009 RMS(Int)=  0.00437109
 Variable       Old X    -DE/DX   Delta X   Delta X   Delta X     New X
                                 (Linear)    (Quad)   (Total)
    R1        2.64092  -0.00160  -0.02987   0.02141  -0.00956   2.63136
    R2        2.64520  -0.00214  -0.03325   0.02252  -0.01218   2.63302
    R3        2.05006   0.00076  -0.00011   0.00510   0.00499   2.05505
    R4        2.63714  -0.00070   0.01350  -0.01712  -0.00327   2.63386
    R5        2.05562  -0.00040   0.00628  -0.00889  -0.00261   2.05301
    R6        2.66634  -0.00242   0.00675  -0.02040  -0.01221   2.65413
    R7        2.05118   0.00029   0.00033   0.00155   0.00189   2.05307
    R8        2.82883  -0.00510   0.00782  -0.04381  -0.03599   2.79284
    R9        2.66737  -0.00216  -0.00215  -0.01024  -0.01131   2.65606
   R10        2.66758  -0.00230  -0.00023  -0.01284  -0.01193   2.65565
   R11        2.66667  -0.00238   0.00687  -0.02022  -0.01200   2.65467
   R12        2.63210  -0.00051  -0.00117  -0.00107  -0.00244   2.62966
   R13        2.05463   0.00003   0.00056  -0.00039   0.00017   2.05480
   R14        2.64532  -0.00225  -0.03607   0.02450  -0.01292   2.63240
   R15        2.05544  -0.00033   0.00322  -0.00540  -0.00218   2.05326
   R16        2.64146  -0.00179  -0.03285   0.02332  -0.01069   2.63077
   R17        2.04969   0.00085  -0.00011   0.00572   0.00561   2.05531
   R18        2.63671  -0.00060   0.01444  -0.01743  -0.00279   2.63392
   R19        2.05560  -0.00038   0.00822  -0.01069  -0.00247   2.05313
   R20        2.05144   0.00018   0.00029   0.00092   0.00121   2.05266
   R21        2.63192  -0.00054  -0.00310   0.00075  -0.00270   2.62921
   R22        2.05468  -0.00001   0.00045  -0.00051  -0.00006   2.05462
   R23        2.05531  -0.00030   0.00095  -0.00297  -0.00202   2.05329
    A1        2.05609   0.00315   0.05556  -0.01001   0.03638   2.09246
    A2        2.11245  -0.00148  -0.02006   0.00389  -0.01650   2.09595
    A3        2.11055  -0.00144  -0.02113   0.00559  -0.01586   2.09468
    A4        2.10457  -0.00125  -0.01028   0.00961  -0.00949   2.09508
    A5        2.09824   0.00039   0.01123  -0.00557   0.00293   2.10117
    A6        2.07265   0.00122   0.02441  -0.00742   0.01427   2.08692
    A7        2.12091  -0.00098   0.01273  -0.01609  -0.00960   2.11131
    A8        2.06654   0.00126   0.01802   0.00212   0.01612   2.08267
    A9        2.08807   0.00009  -0.00563   0.01079   0.00113   2.08920
   A10        2.08333   0.00171   0.05373  -0.01656   0.02432   2.10765
   A11        2.02332   0.00288   0.00933   0.04118   0.03648   2.05980
   A12        2.14034  -0.00332   0.00311  -0.01519  -0.02542   2.11492
   A13        2.14161  -0.00364   0.00667  -0.02197  -0.02825   2.11336
   A14        2.08329   0.00185   0.04761  -0.00940   0.02577   2.10906
   A15        2.02185   0.00304   0.01220   0.04037   0.03802   2.05986
   A16        2.12133  -0.00073   0.01714  -0.01747  -0.00748   2.11385
   A17        2.08840  -0.00005  -0.01095   0.01198  -0.00182   2.08658
   A18        2.07161   0.00095   0.00822   0.00421   0.00977   2.08138
   A19        2.10634  -0.00171  -0.00894   0.00408  -0.01315   2.09320
   A20        2.07388   0.00155   0.01942  -0.00307   0.01622   2.09010
   A21        2.10058   0.00033   0.00313  -0.00381  -0.00076   2.09982
   A22        2.05363   0.00353   0.06415  -0.01400   0.04003   2.09365
   A23        2.11164  -0.00161  -0.02419   0.00726  -0.01746   2.09418
   A24        2.11335  -0.00165  -0.02352   0.00596  -0.01809   2.09526
   A25        2.10550  -0.00143  -0.01248   0.01049  -0.01101   2.09449
   A26        2.10105   0.00012   0.00402  -0.00346  -0.00123   2.09983
   A27        2.07005   0.00162   0.03104  -0.01046   0.01881   2.08885
   A28        2.12128  -0.00107   0.01161  -0.01494  -0.01002   2.11126
   A29        2.08814   0.00016  -0.00599   0.01101   0.00177   2.08991
   A30        2.06660   0.00125   0.01738   0.00126   0.01540   2.08201
   A31        2.12125  -0.00071   0.01752  -0.01835  -0.00752   2.11373
   A32        2.08770   0.00003  -0.01115   0.01350  -0.00056   2.08714
   A33        2.07250   0.00085   0.00756   0.00362   0.00843   2.08094
   A34        2.10529  -0.00153  -0.00509   0.00160  -0.01138   2.09391
   A35        2.09890   0.00049   0.00651  -0.00481   0.00157   2.10047
   A36        2.07674   0.00119   0.01178   0.00039   0.01200   2.08874
    D1        0.18761  -0.00417  -0.18460   0.00927  -0.17575   0.01185
    D2       -3.08885  -0.00091  -0.02520  -0.02067  -0.04636  -3.13521
    D3       -3.05024  -0.00147  -0.06857   0.00334  -0.06519  -3.11544
    D4       -0.04352   0.00179   0.09083  -0.02660   0.06421   0.02069
    D5       -0.18440   0.00428   0.18763  -0.01371   0.17363  -0.01077
    D6        3.03008   0.00172   0.05557   0.03175   0.08854   3.11862
    D7        3.05334   0.00159   0.07162  -0.00769   0.06319   3.11653
    D8       -0.01537  -0.00097  -0.06043   0.03777  -0.02190  -0.03726
    D9        0.01098  -0.00015   0.01544  -0.03110  -0.01562  -0.00464
   D10        3.01938   0.00304   0.16867  -0.05765   0.11343   3.13281
   D11       -2.99770  -0.00330  -0.13995  -0.00171  -0.14311  -3.14081
   D12        0.01070  -0.00012   0.01327  -0.02826  -0.01406  -0.00336
   D13        2.65662   0.00850   0.35246   0.08063   0.43850   3.09513
   D14       -0.20684   0.00432   0.15801   0.04753   0.20327  -0.00357
   D15       -0.35016   0.00519   0.19417   0.10818   0.30785  -0.04231
   D16        3.06956   0.00101  -0.00029   0.07509   0.07262  -3.14100
   D17        0.42273   0.00126   0.05816   0.02885   0.08691   0.50964
   D18       -2.42006  -0.00433  -0.15368  -0.01398  -0.16542  -2.58548
   D19       -3.01644   0.00683   0.26895   0.07352   0.34022  -2.67622
   D20        0.42396   0.00125   0.05711   0.03069   0.08789   0.51185
   D21        0.21021  -0.00421  -0.15310  -0.05330  -0.20554   0.00466
   D22       -2.99538  -0.00105  -0.00814  -0.07587  -0.08475  -3.08014
   D23       -2.64329  -0.00947  -0.36767  -0.08777  -0.45055  -3.09384
   D24        0.43430  -0.00630  -0.22271  -0.11034  -0.32976   0.10454
   D25       -2.63823  -0.00957  -0.36854  -0.09014  -0.45405  -3.09228
   D26        0.43732  -0.00635  -0.22176  -0.11277  -0.33139   0.10593
   D27        0.21428  -0.00430  -0.15519  -0.05618  -0.21018   0.00411
   D28       -2.99335  -0.00108  -0.00841  -0.07881  -0.08752  -3.08087
   D29        2.65406   0.00848   0.35255   0.08236   0.44036   3.09442
   D30       -0.35718   0.00531   0.20185   0.10645   0.31355  -0.04363
   D31       -0.20870   0.00437   0.15708   0.05219   0.20661  -0.00209
   D32        3.06324   0.00121   0.00638   0.07628   0.07980  -3.14014
   D33       -0.01876  -0.00001  -0.02472   0.04316   0.02057   0.00181
   D34        3.04891   0.00252   0.10607  -0.00037   0.10734  -3.12694
   D35       -3.09493  -0.00316  -0.16833   0.06528  -0.10131   3.08695
   D36       -0.02726  -0.00063  -0.03754   0.02175  -0.01454  -0.04180
   D37       -0.18867   0.00440   0.19302  -0.01392   0.17884  -0.00983
   D38        3.05450   0.00153   0.06859  -0.00549   0.06196   3.11646
   D39        3.02798   0.00178   0.05874   0.03024   0.09086   3.11884
   D40       -0.01204  -0.00109  -0.06569   0.03867  -0.02602  -0.03805
   D41        0.19409  -0.00434  -0.19294   0.01115  -0.18226   0.01183
   D42       -3.07227  -0.00126  -0.03939  -0.02186  -0.06263  -3.13491
   D43       -3.04918  -0.00147  -0.06845   0.00279  -0.06527  -3.11445
   D44       -0.03236   0.00161   0.08510  -0.03022   0.05436   0.02200
   D45        0.00746  -0.00005   0.02279  -0.03580  -0.01330  -0.00584
   D46        3.02026   0.00300   0.16868  -0.05887   0.11197   3.13223
   D47       -3.01154  -0.00297  -0.12477  -0.00382  -0.13078   3.14086
   D48        0.00126   0.00008   0.02112  -0.02690  -0.00552  -0.00425
   D49       -0.01776   0.00000  -0.02371   0.04215   0.02022   0.00245
   D50        3.05186   0.00250   0.10623  -0.00296   0.10431  -3.12702
   D51       -3.09590  -0.00311  -0.16572   0.06416  -0.09984   3.08745
   D52       -0.02628  -0.00061  -0.03578   0.01906  -0.01574  -0.04202
         Item               Value     Threshold  Converged?
 Maximum Force            0.009568     0.000450     NO 
 RMS     Force            0.002926     0.000300     NO 
 Maximum Displacement     1.777197     0.001800     NO 
 RMS     Displacement     0.432164     0.001200     NO 
 Predicted change in Energy=-2.130563D-02
 GradGradGradGradGradGradGradGradGradGradGradGradGradGradGradGradGradGrad

                          Input orientation:                          
 ---------------------------------------------------------------------
 Center     Atomic      Atomic             Coordinates (Angstroms)
 Number     Number       Type             X           Y           Z
 ---------------------------------------------------------------------
      1          6           0       -3.544697   -0.190109    0.161186
      2          6           0       -2.775178   -1.319468    0.428234
      3          6           0       -1.384496   -1.245401    0.372203
      4          6           0       -0.737455   -0.043082    0.042949
      5          6           0        0.737785    0.045655    0.041838
      6          6           0        1.532170   -1.079424   -0.237526
      7          6           0        2.920920   -1.010910   -0.181779
      8          6           0        3.544632    0.187514    0.157673
      9          6           0        2.778215    1.317558    0.429092
     10          6           0        1.387302    1.245905    0.374941
     11          6           0       -1.534223    1.081545   -0.232503
     12          6           0       -2.922558    1.010183   -0.175900
     13          1           0       -3.251991   -2.260989    0.686044
     14          1           0       -0.795164   -2.131564    0.590718
     15          1           0        1.058092   -2.005623   -0.553337
     16          1           0        3.514017   -1.890825   -0.415342
     17          1           0        3.258871    2.256799    0.688346
     18          1           0        0.800448    2.132462    0.597411
     19          1           0       -1.062661    2.009686   -0.546059
     20          1           0       -3.516314    1.890442   -0.406547
     21          1           0       -4.628918   -0.240746    0.228462
     22          1           0        4.629118    0.236067    0.224399
 ---------------------------------------------------------------------
                    Distance matrix (angstroms):
                    1          2          3          4          5
     1  C    0.000000
     2  C    1.392453   0.000000
     3  C    2.413429   1.393780   0.000000
     4  C    2.813575   2.435143   1.404507   0.000000
     5  C    4.290627   3.788637   2.506001   1.477907   0.000000
     6  C    5.169568   4.365101   2.984335   2.510751   1.405310
     7  C    6.526526   5.736973   4.347239   3.790897   2.435654
     8  C    7.099379   6.502630   5.137661   4.289825   2.812815
     9  C    6.505693   6.147689   4.888778   3.789509   2.435376
    10  C    5.141249   4.889808   3.726859   2.507250   1.404789
    11  C    2.411244   2.782339   2.408893   1.405525   2.512041
    12  C    1.393336   2.411219   2.784549   2.435557   3.791548
    13  H    2.156316   1.086406   2.148826   3.414026   4.653377
    14  H    3.393181   2.146243   1.086437   2.159892   2.718728
    15  H    4.999230   4.015999   2.720440   2.726007   2.159762
    16  H    7.283561   6.371189   5.003221   4.658240   3.415616
    17  H    7.249399   7.019052   5.824620   4.655815   3.415114
    18  H    4.946201   4.972881   4.029225   2.721317   2.160405
    19  H    3.391134   3.868492   3.397407   2.160220   2.728488
    20  H    2.156807   3.398480   3.870996   3.415058   4.658503
    21  H    1.087486   2.154043   3.399451   3.900893   5.377579
    22  H    8.185162   7.568675   6.195171   5.376891   3.900264
                    6          7          8          9         10
     6  C    0.000000
     7  C    1.391556   0.000000
     8  C    2.410667   1.393006   0.000000
     9  C    2.782540   2.411491   1.392143   0.000000
    10  C    2.408996   2.784804   2.412772   1.393809   0.000000
    11  C    3.751344   4.922320   5.171682   4.369271   2.988530
    12  C    4.920860   6.183129   6.527832   5.741019   4.351309
    13  H    5.013709   6.357723   7.243509   7.016794   5.823928
    14  H    2.685045   3.957511   4.939582   4.969064   4.027035
    15  H    1.087351   2.144210   3.390910   3.868788   3.397428
    16  H    2.148885   1.086539   2.156103   3.398264   3.871246
    17  H    3.868994   3.398419   2.155275   1.086470   2.150092
    18  H    3.398345   3.870960   3.392158   2.145685   1.086220
    19  H    4.046102   5.012546   5.004268   4.022722   2.726523
    20  H    5.859681   7.064442   7.285277   6.375545   5.007156
    21  H    6.235346   7.600099   8.185067   7.571933   6.198911
    22  H    3.396318   2.153572   1.087622   2.153455   3.398795
                   11         12         13         14         15
    11  C    0.000000
    12  C    1.391320   0.000000
    13  H    3.868719   3.398830   0.000000
    14  H    3.398230   3.870928   2.462080   0.000000
    15  H    4.043963   5.008305   4.492003   2.181577   0.000000
    16  H    5.861156   7.064183   6.865052   4.431608   2.462476
    17  H    5.020252   6.364828   7.924754   5.975153   4.955143
    18  H    2.691444   3.964630   5.977669   4.552795   4.302831
    19  H    1.087260   2.143651   4.954786   4.302763   4.540964
    20  H    2.147857   1.086554   4.300930   4.957391   6.010496
    21  H    3.396775   2.154065   2.487306   4.289999   6.005671
    22  H    6.237818   7.601797   8.280114   5.929814   4.287456
                   16         17         18         19         20
    16  H    0.000000
    17  H    4.299536   0.000000
    18  H    4.957416   2.463244   0.000000
    19  H    6.014737   4.501162   2.189469   0.000000
    20  H    7.982707   6.872855   4.438574   2.460507   0.000000
    21  H    8.333345   8.286521   5.936855   4.287483   2.486581
    22  H    2.485234   2.485193   4.288843   6.011297   8.335654
                   21         22
    21  H    0.000000
    22  H    9.270307   0.000000
 Stoichiometry    C12H10
 Framework group  C1[X(C12H10)]
 Deg. of freedom    60
 Full point group                 C1      NOp   1
 Largest Abelian subgroup         C1      NOp   1
 Largest concise Abelian subgroup C1      NOp   1
                         Standard orientation:                         
 ---------------------------------------------------------------------
[...]
    21  H    1.086660   2.158644   3.405086   3.907570   5.393300
    22  H    8.214216   7.606286   6.233597   5.393306   3.907576
                    6          7          8          9         10
     6  C    0.000000
     7  C    1.394094   0.000000
     8  C    2.419517   1.396060   0.000000
     9  C    2.784757   2.411164   1.396055   0.000000
    10  C    2.410174   2.784741   2.419508   1.394099   0.000000
    11  C    3.711325   4.888210   5.172009   4.397742   3.036943
    12  C    4.888133   6.156420   6.535868   5.774384   4.397657
    13  H    5.066772   6.416429   7.285237   7.019782   5.811400
    14  H    2.789890   4.049531   4.979492   4.943871   3.977446
    15  H    1.086526   2.149792   3.400697   3.871024   3.396986
    16  H    2.150288   1.086978   2.156971   3.398811   3.871675
    17  H    3.871684   3.398820   2.156985   1.086972   2.150272
    18  H    3.396993   3.871004   3.400672   2.149771   1.086528
    19  H    3.977590   4.944235   4.980008   4.050159   2.790335
    20  H    5.811517   7.020057   7.285614   6.416852   5.067040
    21  H    6.233723   7.606379   8.214217   7.606446   6.233796
    22  H    3.405079   2.158627   1.086659   2.158648   3.405089
                   11         12         13         14         15
    11  C    0.000000
    12  C    1.394093   0.000000
    13  H    3.871689   3.398822   0.000000
    14  H    3.396998   3.871012   2.468759   0.000000
    15  H    3.977496   4.944023   4.560832   2.364660   0.000000
    16  H    5.811556   7.019993   6.942496   4.560613   2.468798
    17  H    5.067111   6.416797   7.912769   5.924451   4.957983
    18  H    2.790313   4.049989   5.924653   4.447126   4.298367
    19  H    1.086523   2.149784   4.957981   4.298368   4.447155
    20  H    2.150293   1.086977   4.301036   4.957976   5.924684
    21  H    3.405078   2.158628   2.489165   4.298050   5.978341
    22  H    6.233927   7.606546   8.329612   5.978114   4.298046
                   16         17         18         19         20
    16  H    0.000000
    17  H    4.301043   0.000000
    18  H    4.957968   2.468735   0.000000
    19  H    5.924870   4.561382   2.365277   0.000000
    20  H    7.913115   6.943013   4.561180   2.468798   0.000000
    21  H    8.329797   8.329867   5.978496   4.298038   2.489103
    22  H    2.489109   2.489177   4.298042   5.978724   8.330074
                   21         22
    21  H    0.000000
    22  H    9.300876   0.000000
 Stoichiometry    C12H10
 Framework group  C1[X(C12H10)]
 Deg. of freedom    60
 Full point group                 C1      NOp   1
 Largest Abelian subgroup         C1      NOp   1
 Largest concise Abelian subgroup C1      NOp   1
                         Standard orientation:                         
 ---------------------------------------------------------------------
 Center     Atomic      Atomic             Coordinates (Angstroms)
 Number     Number       Type             X           Y           Z
 ---------------------------------------------------------------------
      1          6           0       -3.563777   -0.000090    0.000221
      2          6           0       -2.859720   -1.138730    0.396156
      3          6           0       -1.465619   -1.137999    0.396321
      4          6           0       -0.742866    0.000048   -0.000166
      5          6           0        0.742864    0.000157   -0.000269
      6          6           0        1.465704   -1.137933   -0.396563
      7          6           0        2.859798   -1.138693   -0.395961
      8          6           0        3.563780   -0.000046    0.000117
      9          6           0        2.859859    1.138644    0.396155
     10          6           0        1.465760    1.138083    0.396337
     11          6           0       -1.465844    1.138018   -0.396580
     12          6           0       -2.859937    1.138614   -0.395954
     13          1           0       -3.396800   -2.028365    0.714905
     14          1           0       -0.928115   -2.020494    0.732244
     15          1           0        0.928258   -2.020447   -0.732508
     16          1           0        3.396976   -2.028395   -0.714379
     17          1           0        3.397040    2.028192    0.714980
     18          1           0        0.928378    2.020591    0.732406
     19          1           0       -0.928515    2.020540   -0.732681
     20          1           0       -3.397234    2.028217   -0.714449
     21          1           0       -4.650437   -0.000132    0.000337
     22          1           0        4.650440   -0.000150    0.000265
 ---------------------------------------------------------------------
 Rotational constants (GHZ):      2.8595101      0.5453926      0.4746329

 **********************************************************************

            Population analysis using the SCF density.

 **********************************************************************

 Orbital symmetries:
       Occupied  (A) (A) (A) (A) (A) (A) (A) (A) (A) (A) (A) (A)
                 (A) (A) (A) (A) (A) (A) (A) (A) (A) (A) (A) (A)
                 (A) (A) (A) (A) (A) (A) (A) (A) (A) (A) (A) (A)
                 (A) (A) (A) (A) (A)
       Virtual   (A) (A) (A) (A) (A) (A) (A) (A) (A) (A) (A) (A)
                 (A) (A) (A) (A) (A) (A) (A) (A) (A) (A) (A) (A)
                 (A) (A) (A) (A) (A) (A) (A) (A) (A) (A) (A) (A)
                 (A) (A) (A) (A) (A) (A) (A) (A) (A) (A) (A) (A)
                 (A) (A) (A) (A) (A) (A) (A) (A) (A) (A) (A) (A)
                 (A) (A) (A) (A) (A) (A) (A) (A) (A) (A) (A) (A)
                 (A) (A) (A) (A) (A) (A) (A) (A) (A) (A) (A) (A)
                 (A) (A) (A) (A) (A) (A) (A) (A) (A) (A) (A) (A)
                 (A) (A) (A) (A) (A) (A) (A) (A) (A) (A) (A) (A)
                 (A) (A) (A) (A) (A) (A) (A) (A) (A) (A) (A) (A)
                 (A) (A) (A) (A) (A) (A) (A) (A) (A) (A) (A) (A)
                 (A) (A) (A) (A) (A) (A) (A) (A) (A) (A) (A) (A)
                 (A) (A) (A) (A) (A) (A) (A) (A) (A) (A) (A) (A)
                 (A) (A) (A)
 The electronic state is 1-A.
 Alpha  occ. eigenvalues --  -10.19740 -10.19711 -10.18910 -10.18910 -10.18893
 Alpha  occ. eigenvalues --  -10.18893 -10.18813 -10.18813 -10.18762 -10.18762
 Alpha  occ. eigenvalues --  -10.18760 -10.18760  -0.86337  -0.84127  -0.77250
 Alpha  occ. eigenvalues --   -0.74601  -0.73854  -0.71621  -0.62018  -0.61455
 Alpha  occ. eigenvalues --   -0.58758  -0.57373  -0.52783  -0.49573  -0.46904
 Alpha  occ. eigenvalues --   -0.45725  -0.43922  -0.43045  -0.42161  -0.41674
 Alpha  occ. eigenvalues --   -0.41410  -0.37155  -0.36319  -0.35402  -0.34800
 Alpha  occ. eigenvalues --   -0.33358  -0.33213  -0.27145  -0.24874  -0.24825
 Alpha  occ. eigenvalues --   -0.22220
 Alpha virt. eigenvalues --   -0.02477  -0.00127   0.00251   0.03192   0.09717
 Alpha virt. eigenvalues --    0.09909   0.12967   0.14282   0.15108   0.15971
 Alpha virt. eigenvalues --    0.16824   0.17462   0.18255   0.18299   0.19713
 Alpha virt. eigenvalues --    0.21681   0.25831   0.27891   0.29590   0.30900
 Alpha virt. eigenvalues --    0.31529   0.31532   0.34484   0.37273   0.38135
 Alpha virt. eigenvalues --    0.44441   0.49635   0.52876   0.53820   0.54252
 Alpha virt. eigenvalues --    0.54259   0.54423   0.55114   0.56402   0.57609
 Alpha virt. eigenvalues --    0.58266   0.59627   0.59788   0.60578   0.61100
 Alpha virt. eigenvalues --    0.61329   0.61363   0.61685   0.61968   0.63383
 Alpha virt. eigenvalues --    0.63572   0.65004   0.67161   0.67709   0.68538
 Alpha virt. eigenvalues --    0.72503   0.76895   0.78638   0.81984   0.82620
 Alpha virt. eigenvalues --    0.83468   0.84070   0.84168   0.84696   0.86142
 Alpha virt. eigenvalues --    0.86858   0.90379   0.92410   0.92493   0.94013
 Alpha virt. eigenvalues --    0.95490   0.97813   0.98051   0.98679   1.00093
 Alpha virt. eigenvalues --    1.03072   1.07949   1.09922   1.11746   1.11936
 Alpha virt. eigenvalues --    1.15479   1.16920   1.18487   1.21099   1.22279
 Alpha virt. eigenvalues --    1.25679   1.28896   1.32917   1.41339   1.42023
 Alpha virt. eigenvalues --    1.42474   1.45206   1.45992   1.47430   1.49380
 Alpha virt. eigenvalues --    1.49787   1.49875   1.50066   1.51772   1.52227
 Alpha virt. eigenvalues --    1.64388   1.72067   1.77984   1.78451   1.82488
 Alpha virt. eigenvalues --    1.83396   1.83819   1.89484   1.89774   1.91753
 Alpha virt. eigenvalues --    1.93334   1.97261   1.98769   2.02376   2.05693
 Alpha virt. eigenvalues --    2.05940   2.07507   2.12391   2.12595   2.13875
 Alpha virt. eigenvalues --    2.15768   2.15832   2.17253   2.21136   2.22769
 Alpha virt. eigenvalues --    2.29265   2.29405   2.31112   2.31369   2.31476
 Alpha virt. eigenvalues --    2.34990   2.41878   2.51069   2.57783   2.58103
 Alpha virt. eigenvalues --    2.58889   2.62380   2.64989   2.66322   2.68327
 Alpha virt. eigenvalues --    2.72705   2.73441   2.74021   2.75732   2.76573
 Alpha virt. eigenvalues --    2.78285   2.83680   2.97807   2.98288   3.19135
 Alpha virt. eigenvalues --    3.36639   3.46175   4.08912   4.09345   4.11760
 Alpha virt. eigenvalues --    4.11897   4.12151   4.15682   4.30595   4.32918
 Alpha virt. eigenvalues --    4.34108   4.41846   4.63917   4.76189
          Condensed to atoms (all electrons):
               1          2          3          4          5          6
     1  C    4.853812   0.549087  -0.037233  -0.033271   0.000659   0.000003
     2  C    0.549087   4.874882   0.514043  -0.014458   0.005990   0.000359
     3  C   -0.037233   0.514043   5.002013   0.522987  -0.047537  -0.012783
     4  C   -0.033271  -0.014458   0.522987   4.767219   0.340496  -0.047530
     5  C    0.000659   0.005990  -0.047537   0.340496   4.767221   0.522942
     6  C    0.000003   0.000359  -0.012783  -0.047530   0.522942   5.002056
     7  C   -0.000000  -0.000002   0.000360   0.005990  -0.014452   0.514034
     8  C    0.000000  -0.000000   0.000003   0.000659  -0.033271  -0.037231
     9  C   -0.000000   0.000002  -0.000178   0.005989  -0.014458  -0.043850
    10  C    0.000003  -0.000178   0.005530  -0.047526   0.522977  -0.059149
    11  C   -0.037234  -0.043849  -0.059149   0.522933  -0.047518   0.005534
    12  C    0.549078  -0.026521  -0.043849  -0.014453   0.005989  -0.000178
    13  H   -0.043157   0.356861  -0.038953   0.003454  -0.000179  -0.000002
    14  H    0.004750  -0.044373   0.350892  -0.042449  -0.009594   0.005480
    15  H   -0.000006  -0.000039   0.005477  -0.009594  -0.042452   0.350897
    16  H   -0.000000  -0.000000  -0.000002  -0.000179   0.003453  -0.038952
    17  H   -0.000000  -0.000000   0.000001  -0.000179   0.003454   0.000840
    18  H   -0.000006  -0.000010   0.000021  -0.009590  -0.042451   0.006348
    19  H    0.004750   0.000311   0.006348  -0.042453  -0.009590   0.000021
    20  H   -0.043157   0.004589   0.000840   0.003453  -0.000179   0.000001
    21  H    0.358920  -0.043204   0.004779   0.000611   0.000004   0.000000
    22  H   -0.000000   0.000000   0.000000   0.000004   0.000611   0.004779
               7          8          9         10         11         12
     1  C   -0.000000   0.000000  -0.000000   0.000003  -0.037234   0.549078
     2  C   -0.000002  -0.000000   0.000002  -0.000178  -0.043849  -0.026521
     3  C    0.000360   0.000003  -0.000178   0.005530  -0.059149  -0.043849
     4  C    0.005990   0.000659   0.005989  -0.047526   0.522933  -0.014453
     5  C   -0.014452  -0.033271  -0.014458   0.522977  -0.047518   0.005989
     6  C    0.514034  -0.037231  -0.043850  -0.059149   0.005534  -0.000178
     7  C    4.874901   0.549076  -0.026521  -0.043848  -0.000178   0.000002
     8  C    0.549076   4.853813   0.549087  -0.037236   0.000003  -0.000000
     9  C   -0.026521   0.549087   4.874867   0.514056   0.000358  -0.000002
    10  C   -0.043848  -0.037236   0.514056   5.001995  -0.012777   0.000359
    11  C   -0.000178   0.000003   0.000358  -0.012777   5.002039   0.514045
    12  C    0.000002  -0.000000  -0.000002   0.000359   0.514045   4.874886
    13  H   -0.000000  -0.000000  -0.000000   0.000001   0.000840   0.004589
    14  H   -0.000039  -0.000006  -0.000010   0.000021   0.006348   0.000310
    15  H   -0.044373   0.004750   0.000311   0.006348   0.000021  -0.000010
    16  H    0.356859  -0.043158   0.004589   0.000840   0.000001  -0.000000
    17  H    0.004589  -0.043157   0.356862  -0.038954  -0.000002  -0.000000
    18  H    0.000310   0.004750  -0.044374   0.350896   0.005478  -0.000040
    19  H   -0.000010  -0.000006  -0.000039   0.005475   0.350901  -0.044374
    20  H   -0.000000  -0.000000  -0.000000  -0.000002  -0.038953   0.356860
    21  H    0.000000  -0.000000   0.000000   0.000000   0.004779  -0.043204
    22  H   -0.043204   0.358920  -0.043204   0.004779   0.000000   0.000000
              13         14         15         16         17         18
     1  C   -0.043157   0.004750  -0.000006  -0.000000  -0.000000  -0.000006
     2  C    0.356861  -0.044373  -0.000039  -0.000000  -0.000000  -0.000010
     3  C   -0.038953   0.350892   0.005477  -0.000002   0.000001   0.000021
     4  C    0.003454  -0.042449  -0.009594  -0.000179  -0.000179  -0.009590
     5  C   -0.000179  -0.009594  -0.042452   0.003453   0.003454  -0.042451
     6  C   -0.000002   0.005480   0.350897  -0.038952   0.000840   0.006348
     7  C   -0.000000  -0.000039  -0.044373   0.356859   0.004589   0.000310
     8  C   -0.000000  -0.000006   0.004750  -0.043158  -0.043157   0.004750
     9  C   -0.000000  -0.000010   0.000311   0.004589   0.356862  -0.044374
    10  C    0.000001   0.000021   0.006348   0.000840  -0.038954   0.350896
    11  C    0.000840   0.006348   0.000021   0.000001  -0.000002   0.005478
    12  C    0.004589   0.000310  -0.000010  -0.000000  -0.000000  -0.000040
    13  H    0.597873  -0.005635   0.000006   0.000000   0.000000   0.000000
    14  H   -0.005635   0.599902   0.002655   0.000006   0.000000   0.000001
    15  H    0.000006   0.002655   0.599899  -0.005634   0.000017  -0.000174
    16  H    0.000000   0.000006  -0.005634   0.597878  -0.000190   0.000017
    17  H    0.000000   0.000000   0.000017  -0.000190   0.597873  -0.005635
    18  H    0.000000   0.000001  -0.000174   0.000017  -0.005635   0.599902
    19  H    0.000017  -0.000174   0.000001   0.000000   0.000006   0.002653
    20  H   -0.000190   0.000017   0.000000   0.000000   0.000000   0.000006
    21  H   -0.005521  -0.000176  -0.000000  -0.000000  -0.000000  -0.000000
    22  H   -0.000000  -0.000000  -0.000176  -0.005522  -0.005521  -0.000176
              19         20         21         22
     1  C    0.004750  -0.043157   0.358920  -0.000000
     2  C    0.000311   0.004589  -0.043204   0.000000
     3  C    0.006348   0.000840   0.004779   0.000000
     4  C   -0.042453   0.003453   0.000611   0.000004
     5  C   -0.009590  -0.000179   0.000004   0.000611
     6  C    0.000021   0.000001   0.000000   0.004779
     7  C   -0.000010  -0.000000   0.000000  -0.043204
     8  C   -0.000006  -0.000000  -0.000000   0.358920
     9  C   -0.000039  -0.000000   0.000000  -0.043204
    10  C    0.005475  -0.000002   0.000000   0.004779
    11  C    0.350901  -0.038953   0.004779   0.000000
    12  C   -0.044374   0.356860  -0.043204   0.000000
    13  H    0.000017  -0.000190  -0.005521  -0.000000
    14  H   -0.000174   0.000017  -0.000176  -0.000000
    15  H    0.000001   0.000000  -0.000000  -0.000176
    16  H    0.000000   0.000000  -0.000000  -0.005522
    17  H    0.000006   0.000000  -0.000000  -0.005521
    18  H    0.002653   0.000006  -0.000000  -0.000176
    19  H    0.599898  -0.005634  -0.000176  -0.000000
    20  H   -0.005634   0.597877  -0.005522  -0.000000
    21  H   -0.000176  -0.005522   0.599527  -0.000000
    22  H   -0.000000  -0.000000  -0.000000   0.599526
 Mulliken charges:
               1
     1  C   -0.126997
     2  C   -0.133491
     3  C   -0.173611
     4  C    0.087888
     5  C    0.087886
     6  C   -0.173621
     7  C   -0.133494
     8  C   -0.126997
     9  C   -0.133485
    10  C   -0.173610
    11  C   -0.173622
    12  C   -0.133487
    13  H    0.129996
    14  H    0.132074
    15  H    0.132075
    16  H    0.129993
    17  H    0.129996
    18  H    0.132072
    19  H    0.132074
    20  H    0.129994
    21  H    0.129184
    22  H    0.129185
 Sum of Mulliken charges =  -0.00000
 Mulliken charges with hydrogens summed into heavy atoms:
               1
     1  C    0.002187
     2  C   -0.003495
     3  C   -0.041538
     4  C    0.087888
     5  C    0.087886
     6  C   -0.041546
     7  C   -0.003501
     8  C    0.002188
     9  C   -0.003489
    10  C   -0.041538
    11  C   -0.041548
    12  C   -0.003493
 Electronic spatial extent (au):  <R**2>=           2312.2760
 Charge=             -0.0000 electrons
 Dipole moment (field-independent basis, Debye):
    X=             -0.0000    Y=             -0.0001    Z=              0.0005  Tot=              0.0005
 Quadrupole moment (field-independent basis, Debye-Ang):
   XX=            -61.0206   YY=            -62.8046   ZZ=            -73.3810
   XY=             -0.0007   XZ=              0.0007   YZ=             -0.0000
 Traceless Quadrupole moment (field-independent basis, Debye-Ang):
   XX=              4.7148   YY=              2.9308   ZZ=             -7.6456
   XY=             -0.0007   XZ=              0.0007   YZ=             -0.0000
 Octapole moment (field-independent basis, Debye-Ang**2):
  XXX=             -0.0002  YYY=             -0.0016  ZZZ=              0.0011  XYY=             -0.0000
  XXY=             -0.0007  XXZ=              0.0101  XZZ=             -0.0000  YZZ=              0.0010
  YYZ=              0.0020  XYZ=              9.9807
 Hexadecapole moment (field-independent basis, Debye-Ang**3):
 XXXX=          -2291.9381 YYYY=           -497.8492 ZZZZ=           -138.0692 XXXY=             -0.0173
 XXXZ=              0.0093 YYYX=             -0.0055 YYYZ=             -0.0000 ZZZX=              0.0021
 ZZZY=             -0.0000 XXYY=           -473.1222 XXZZ=           -479.3480 YYZZ=           -109.2037
 XXYZ=             -0.0002 YYXZ=              0.0029 ZZXY=              0.0057
 N-N= 5.986998651514D+02 E-N=-2.269662206972D+03  KE= 4.587254878244D+02
 1\1\GINC-N181\FOpt\RB3LYP\6-31G(d)\C12H10\CCOLWELL\18-Apr-2019\0\\#n B
 3LYP/6-31G(d) opt\\geometry optimization\\0,1\C,-3.5578838662,-0.19868
 91108,0.1054356635\C,-2.7912832135,-1.2969614411,0.4992405007\C,-1.399
 3853407,-1.218612723,0.4986746167\C,-0.7413576457,-0.0414913955,0.1035
 686183\C,0.7420614287,0.0413381214,0.1026853264\C,1.5269031746,-1.0541
 402443,-0.2957470965\C,2.9188769983,-0.9772810746,-0.2958780158\C,3.55
 86135101,0.1981932397,0.1015899721\C,2.7926284018,1.2953247077,0.49975
 76953\C,1.400723546,1.2171448282,0.5006704052\C,-1.5268133184,1.055059
 1192,-0.2907067921\C,-2.918776583,0.9780352831,-0.2893474257\H,-3.2778
 043731,-2.2156015043,0.8168950842\H,-0.8133763517,-2.0703207203,0.8329
 502742\H,1.0392197484,-1.9646990366,-0.6327741037\H,3.5045619796,-1.83
 52116815,-0.6159534442\H,3.2796443057,2.2129174503,0.81967517\H,0.8152
 45707,2.0678541861,0.8383862256\H,-1.0396581528,1.9666374557,-0.625724
 6843\H,-3.5049633031,1.8368240253,-0.6061850865\H,-4.6428557098,-0.259
 2325587,0.106121946\H,4.6435930577,0.2585910738,0.1011671506\\Version=
 EM64L-G09RevE.01\State=1-A\HF=-463.3060781\RMSD=6.916e-09\RMSF=1.044e-
 05\Dipole=-0.0000019,-0.0000434,0.0001786\Quadrupole=3.5012813,2.18301
 35,-5.6842949,0.0732098,-0.0049463,0.0118882\PG=C01 [X(C12H10)]\\@


 AND ALL THIS SCIENCE I DON'T UNDERSTAND
 IT'S JUST MY JOB FIVE DAYS A WEEK

                           -- ELTON JOHN, "ROCKET MAN"
 Job cpu time:       0 days  0 hours  7 minutes 14.0 seconds.
 File lengths (MBytes):  RWF=     27 Int=      0 D2E=      0 Chk=      4 Scr=      1
 Normal termination of Gaussian 09 at Thu Apr 18 09:21:16 2019.
