 Entering Gaussian System, Link 0=g09
 Initial command:
 /packages/gaussian/g09e01/l1.exe "/tmp/Gau-162805.inp" -scrdir="/tmp/"
 Entering Link 1 = /packages/gaussian/g09e01/l1.exe PID=    162806.
  
 Copyright (c) 1988,1990,1992,1993,1995,1998,2003,2009,2015,
            Gaussian, Inc.  All Rights Reserved.
  
 This is part of the Gaussian(R) 09 program.  It is based on
 the Gaussian(R) 03 system (copyright 2003, Gaussian, Inc.),
 the Gaussian(R) 98 system (copyright 1998, Gaussian, Inc.),
 the Gaussian(R) 94 system (copyright 1995, Gaussian, Inc.),
 the Gaussian 92(TM) system (copyright 1992, Gaussian, Inc.),
 the Gaussian 90(TM) system (copyright 1990, Gaussian, Inc.),
 the Gaussian 88(TM) system (copyright 1988, Gaussian, Inc.),
 the Gaussian 86(TM) system (copyright 1986, Carnegie Mellon
 University), and the Gaussian 82(TM) system (copyright 1983,
 Carnegie Mellon University). Gaussian is a federally registered
 trademark of Gaussian, Inc.
  
 This software contains proprietary and confidential information,
 including trade secrets, belonging to Gaussian, Inc.
  
 This software is provided under written license and may be
 used, copied, transmitted, or stored only in accord with that
 written license.
  
 The following legend is applicable only to US Government
 contracts under FAR:
  
                    RESTRICTED RIGHTS LEGEND
  
 Use, reproduction and disclosure by the US Government is
 subject to restrictions as set forth in subparagraphs (a)
 and (c) of the Commercial Computer Software - Restricted
 Rights clause in FAR 52.227-19.
  
 Gaussian, Inc.
 340 Quinnipiac St., Bldg. 40, Wallingford CT 06492
  
  
 ---------------------------------------------------------------
 Warning -- This program may not be used in any manner that
 competes with the business of Gaussian, Inc. or will provide
 assistance to any competitor of Gaussian, Inc.  The licensee
 of this program is prohibited from giving any competitor of
 Gaussian, Inc. access to this program.  By using this program,
 the user acknowledges that Gaussian, Inc. is engaged in the
 business of creating and licensing software in the field of
 computational chemistry and represents and warrants to the
 licensee that it is not a competitor of Gaussian, Inc. and that
 it will not use this program in any manner prohibited above.
 ---------------------------------------------------------------
  

 Cite this work as:
 Gaussian 09, Revision E.01,
 M. J. Frisch, G. W. Trucks, H. B. Schlegel, G. E. Scuseria, 
 M. A. Robb, J. R. Cheeseman, G. Scalmani, V. Barone, B. Mennucci, 
 G. A. Petersson, H. Nakatsuji, M. Caricato, X. Li, H. P. Hratchian, 
 A. F. Izmaylov, J. Bloino, G. Zheng, J. L. Sonnenberg, M. Hada, 
 M. Ehara, K. Toyota, R. Fukuda, J. Hasegawa, M. Ishida, T. Nakajima, 
 Y. Honda, O. Kitao, H. Nakai, T. Vreven, J. A. Montgomery, Jr., 
 J. E. Peralta, F. Ogliaro, M. Bearpark, J. J. Heyd, E. Brothers, 
 K. N. Kudin, V. N. Staroverov, T. Keith, R. Kobayashi, J. Normand, 
 K. Raghavachari, A. Rendell, J. C. Burant, S. S. Iyengar, J. Tomasi, 
 M. Cossi, N. Rega, J. M. Millam, M. Klene, J. E. Knox, J. B. Cross, 
 V. Bakken, C. Adamo, J. Jaramillo, R. Gomperts, R. E. Stratmann, 
 O. Yazyev, A. J. Austin, R. Cammi, C. Pomelli, J. W. Ochterski, 
 R. L. Martin, K. Morokuma, V. G. Zakrzewski, G. A. Voth, 
 P. Salvador, J. J. Dannenberg, S. Dapprich, A. D. Daniels, 
 O. Farkas, J. B. Foresman, J. V. Ortiz, J. Cioslowski, 
 and D. J. Fox, Gaussian, Inc., Wallingford CT, 2013.
 
 ******************************************
 Gaussian 09:  EM64L-G09RevE.01 30-Nov-2015
                18-Apr-2019 
 ******************************************
 ---------------------
 #n B3LYP/6-31G(d) opt
 ---------------------
 1/14=-1,18=20,19=15,26=3,38=1/1,3;
 2/9=110,12=2,17=6,18=5,40=1/2;
 3/5=1,6=6,7=1,11=2,16=1,25=1,30=1,71=1,74=-5/1,2,3;
 4//1;
 5/5=2,38=5/2;
 6/7=2,8=2,9=2,10=2,28=1/1;
 7//1,2,3,16;
 1/14=-1,18=20,19=15,26=3/3(2);
 2/9=110/2;
 99//99;
 2/9=110/2;
 3/5=1,6=6,7=1,11=2,16=1,25=1,30=1,71=1,74=-5/1,2,3;
 4/5=5,16=3,69=1/1;
 5/5=2,38=5/2;
 7//1,2,3,16;
 1/14=-1,18=20,19=15,26=3/3(-5);
 2/9=110/2;
 6/7=2,8=2,9=2,10=2,19=2,28=1/1;
 99/9=1/99;
 -------------------
 proton optimization
 -------------------
 Symbolic Z-matrix:
 Charge =  0 Multiplicity = 1
 C                    -1   -3.45244   0.7122    0.1123 
 C                    -1   -3.1469    0.05114   1.31772 
 C                    -1   -2.85267  -1.3079    1.33429 
 C                    -1   -2.85071  -2.06469   0.14635 
 C                    -1   -1.75056  -3.06035  -0.02894 
 C                    -1   -1.02527  -3.58741   1.06151 
 C                    -1    0.35993  -3.72382   0.99975 
 C                    -1    1.07879  -3.34145  -0.15495 
 C                    -1    0.306    -3.21471  -1.32712 
 C                    -1   -1.07539  -3.07266  -1.26518 
 C                    -1   -3.53049  -1.48427  -0.94707 
 C                    -1   -3.82485  -0.12194  -0.96416 
 H                    -1   -2.91589   0.62997   2.2065 
 H                    -1   -2.40899  -1.71703   2.23633 
 H                    -1   -1.51811  -3.74847   2.01695 
 H                    -1    0.88906  -3.98455   1.91221 
 H                    -1    0.78625  -3.01277  -2.27863 
 H                    -1   -1.59147  -2.7566   -2.1663 
 H                    -1   -3.69724  -2.06154  -1.85305 
 H                    -1   -4.20886   0.31483  -1.88282 
 H                    -3.40708   1.73922   0.02177 
 H                     2.09594  -3.16754  -0.14124 
 

 GradGradGradGradGradGradGradGradGradGradGradGradGradGradGradGradGradGrad
 Berny optimization.
 Initialization pass.
                           ----------------------------
                           !    Initial Parameters    !
                           ! (Angstroms and Degrees)  !
 --------------------------                            --------------------------
 ! Name  Definition              Value          Derivative Info.                !
 --------------------------------------------------------------------------------
 ! X1    R(1,-1)                -3.4524         Frozen                          !
 ! Y1    R(1,-2)                 0.7122         Frozen                          !
 ! Z1    R(1,-3)                 0.1123         Frozen                          !
 ! X2    R(2,-1)                -3.1469         Frozen                          !
 ! Y2    R(2,-2)                 0.0511         Frozen                          !
 ! Z2    R(2,-3)                 1.3177         Frozen                          !
 ! X3    R(3,-1)                -2.8527         Frozen                          !
 ! Y3    R(3,-2)                -1.3079         Frozen                          !
 ! Z3    R(3,-3)                 1.3343         Frozen                          !
 ! X4    R(4,-1)                -2.8507         Frozen                          !
 ! Y4    R(4,-2)                -2.0647         Frozen                          !
 ! Z4    R(4,-3)                 0.1464         Frozen                          !
 ! X5    R(5,-1)                -1.7506         Frozen                          !
 ! Y5    R(5,-2)                -3.0603         Frozen                          !
 ! Z5    R(5,-3)                -0.0289         Frozen                          !
 ! X6    R(6,-1)                -1.0253         Frozen                          !
 ! Y6    R(6,-2)                -3.5874         Frozen                          !
 ! Z6    R(6,-3)                 1.0615         Frozen                          !
 ! X7    R(7,-1)                 0.3599         Frozen                          !
 ! Y7    R(7,-2)                -3.7238         Frozen                          !
 ! Z7    R(7,-3)                 0.9998         Frozen                          !
 ! X8    R(8,-1)                 1.0788         Frozen                          !
 ! Y8    R(8,-2)                -3.3415         Frozen                          !
 ! Z8    R(8,-3)                -0.155          Frozen                          !
 ! X9    R(9,-1)                 0.306          Frozen                          !
 ! Y9    R(9,-2)                -3.2147         Frozen                          !
 ! Z9    R(9,-3)                -1.3271         Frozen                          !
 ! X10   R(10,-1)               -1.0754         Frozen                          !
 ! Y10   R(10,-2)               -3.0727         Frozen                          !
 ! Z10   R(10,-3)               -1.2652         Frozen                          !
 ! X11   R(11,-1)               -3.5305         Frozen                          !
 ! Y11   R(11,-2)               -1.4843         Frozen                          !
 ! Z11   R(11,-3)               -0.9471         Frozen                          !
 ! X12   R(12,-1)               -3.8249         Frozen                          !
 ! Y12   R(12,-2)               -0.1219         Frozen                          !
 ! Z12   R(12,-3)               -0.9642         Frozen                          !
 ! X13   R(13,-1)               -2.9159         Frozen                          !
 ! Y13   R(13,-2)                0.63           Frozen                          !
 ! Z13   R(13,-3)                2.2065         Frozen                          !
 ! X14   R(14,-1)               -2.409          Frozen                          !
 ! Y14   R(14,-2)               -1.717          Frozen                          !
 ! Z14   R(14,-3)                2.2363         Frozen                          !
 ! X15   R(15,-1)               -1.5181         Frozen                          !
 ! Y15   R(15,-2)               -3.7485         Frozen                          !
 ! Z15   R(15,-3)                2.017          Frozen                          !
 ! X16   R(16,-1)                0.8891         Frozen                          !
 ! Y16   R(16,-2)               -3.9846         Frozen                          !
 ! Z16   R(16,-3)                1.9122         Frozen                          !
 ! X17   R(17,-1)                0.7863         Frozen                          !
 ! Y17   R(17,-2)               -3.0128         Frozen                          !
 ! Z17   R(17,-3)               -2.2786         Frozen                          !
 ! X18   R(18,-1)               -1.5915         Frozen                          !
 ! Y18   R(18,-2)               -2.7566         Frozen                          !
 ! Z18   R(18,-3)               -2.1663         Frozen                          !
 ! X19   R(19,-1)               -3.6972         Frozen                          !
 ! Y19   R(19,-2)               -2.0615         Frozen                          !
 ! Z19   R(19,-3)               -1.8531         Frozen                          !
 ! X20   R(20,-1)               -4.2089         Frozen                          !
 ! Y20   R(20,-2)                0.3148         Frozen                          !
 ! Z20   R(20,-3)               -1.8828         Frozen                          !
 ! R1    R(1,21)                 1.032          estimate D2E/DX2                !
 ! R2    R(8,22)                 1.032          estimate D2E/DX2                !
 ! A1    A(2,1,21)             122.1864         estimate D2E/DX2                !
 ! A2    A(12,1,21)            122.1869         estimate D2E/DX2                !
 ! A3    A(7,8,22)             122.4259         estimate D2E/DX2                !
 ! A4    A(9,8,22)             122.4255         estimate D2E/DX2                !
 ! D1    D(21,1,2,3)          -162.0121         estimate D2E/DX2                !
 ! D2    D(21,1,2,13)            4.01           estimate D2E/DX2                !
 ! D3    D(21,1,12,11)         162.0769         estimate D2E/DX2                !
 ! D4    D(21,1,12,20)          -8.5686         estimate D2E/DX2                !
 ! D5    D(6,7,8,22)           161.6208         estimate D2E/DX2                !
 ! D6    D(16,7,8,22)           -8.813          estimate D2E/DX2                !
 ! D7    D(22,8,9,10)         -161.3134         estimate D2E/DX2                !
 ! D8    D(22,8,9,17)            5.5163         estimate D2E/DX2                !
 --------------------------------------------------------------------------------
 Trust Radius=3.00D-01 FncErr=1.00D-07 GrdErr=1.00D-06
 Number of steps in this run=     84 maximum allowed number of steps=    132.
 GradGradGradGradGradGradGradGradGradGradGradGradGradGradGradGradGradGrad

                          Input orientation:                          
 ---------------------------------------------------------------------
 Center     Atomic      Atomic             Coordinates (Angstroms)
 Number     Number       Type             X           Y           Z
 ---------------------------------------------------------------------
      1          6           0       -3.452440    0.712200    0.112300
      2          6           0       -3.146900    0.051140    1.317720
      3          6           0       -2.852670   -1.307900    1.334290
      4          6           0       -2.850710   -2.064690    0.146350
      5          6           0       -1.750560   -3.060350   -0.028940
      6          6           0       -1.025270   -3.587410    1.061510
      7          6           0        0.359930   -3.723820    0.999750
      8          6           0        1.078790   -3.341450   -0.154950
      9          6           0        0.306000   -3.214710   -1.327120
     10          6           0       -1.075390   -3.072660   -1.265180
     11          6           0       -3.530490   -1.484270   -0.947070
     12          6           0       -3.824850   -0.121940   -0.964160
     13          1           0       -2.915890    0.629970    2.206500
     14          1           0       -2.408990   -1.717030    2.236330
     15          1           0       -1.518110   -3.748470    2.016950
     16          1           0        0.889060   -3.984550    1.912210
     17          1           0        0.786250   -3.012770   -2.278630
     18          1           0       -1.591470   -2.756600   -2.166300
     19          1           0       -3.697240   -2.061540   -1.853050
     20          1           0       -4.208860    0.314830   -1.882820
     21          1           0       -3.407080    1.739220    0.021770
     22          1           0        2.095940   -3.167540   -0.141240
 ---------------------------------------------------------------------
                    Distance matrix (angstroms):
                    1          2          3          4          5
     1  C    0.000000
     2  C    1.408330   0.000000
     3  C    2.435937   1.390624   0.000000
     4  C    2.841541   2.436508   1.408523   0.000000
     5  C    4.141072   3.666692   2.478734   1.494120   0.000000
     6  C    5.027803   4.219716   2.934274   2.547239   1.411708
     7  C    5.916080   5.162295   4.033533   3.713383   2.439788
     8  C    6.085684   5.615593   4.670068   4.142689   2.846070
     9  C    5.623026   5.439069   4.549310   3.668580   2.436911
    10  C    4.676856   4.551994   3.609757   2.481971   1.408650
    11  C    2.439844   2.762951   2.386451   1.412287   2.548557
    12  C    1.411823   2.386744   2.763061   2.440586   3.716392
    13  H    2.163405   1.085514   2.126050   3.392589   4.469189
    14  H    3.391379   2.124801   1.085318   2.164255   2.714680
    15  H    5.221772   4.192722   2.864168   2.847821   2.170992
    16  H    6.644378   5.738396   4.636700   4.559606   3.404380
    17  H    6.128494   6.147434   5.403842   4.472903   3.390984
    18  H    4.548384   4.737210   3.992930   2.722641   2.164690
    19  H    3.408249   3.849685   3.382367   2.171226   2.848607
    20  H    2.170387   3.382417   3.849974   3.409431   4.568583
    21  H    1.032000   2.144014   3.363781   3.846401   5.077647
    22  H    6.775041   6.322645   5.488551   5.076252   3.849632
                    6          7          8          9         10
     6  C    0.000000
     7  C    1.393270   0.000000
     8  C    2.442814   1.412904   0.000000
     9  C    2.759844   2.382525   1.409699   0.000000
    10  C    2.383478   2.759359   2.438309   1.390055   0.000000
    11  C    3.838453   4.892960   5.032100   4.225815   2.941376
    12  C    4.893922   5.860279   5.921634   5.173093   4.044365
    13  H    4.761485   5.580567   6.107871   6.135846   5.399025
    14  H    2.606378   3.636379   4.530074   4.723599   3.984569
    15  H    1.087059   2.135963   3.409795   3.846437   3.380103
    16  H    2.132151   1.086527   2.173183   3.380218   3.845311
    17  H    3.842961   3.381585   2.168785   1.084800   2.120465
    18  H    3.380767   3.842831   3.393798   2.124731   1.085472
    19  H    4.238203   5.230896   5.228018   4.199087   2.870897
    20  H    5.833678   6.744905   6.656813   5.757640   4.655663
    21  H    5.926809   6.707579   6.779931   6.336236   5.499746
    22  H    3.371179   2.150590   1.032001   2.147655   3.365944
                   11         12         13         14         15
    11  C    0.000000
    12  C    1.393873   0.000000
    13  H    3.846134   3.382996   0.000000
    14  H    3.383190   3.846051   2.401301   0.000000
    15  H    4.238123   5.230658   4.600049   2.229023   0.000000
    16  H    5.827461   6.739006   5.988159   4.015449   2.420986
    17  H    4.769026   5.598837   6.862346   5.680965   4.929841
    18  H    2.620142   3.657125   5.687207   4.596977   4.299857
    19  H    1.087127   2.137395   4.933019   4.301314   4.750920
    20  H    2.138358   1.087275   4.300421   4.933091   6.241694
    21  H    3.368200   2.147209   2.498949   4.224467   6.137075
    22  H    5.927856   6.708847   6.712034   5.296340   4.249308
                   16         17         18         19         20
    16  H    0.000000
    17  H    4.303262   0.000000
    18  H    4.929009   2.394116   0.000000
    19  H    6.237732   4.603003   2.239531   0.000000
    20  H    7.673051   6.015040   4.045340   2.431003   0.000000
    21  H    7.402170   6.742200   5.319444   4.247931   2.509821
    22  H    2.518079   2.511509   4.226906   6.141210   7.410162
                   21         22
    21  H    0.000000
    22  H    7.374693   0.000000
 Stoichiometry    C12H10
 Framework group  C1[X(C12H10)]
 Deg. of freedom    60
 Full point group                 C1      NOp   1
 Largest Abelian subgroup         C1      NOp   1
 Largest concise Abelian subgroup C1      NOp   1
                         Standard orientation:                         
 ---------------------------------------------------------------------
 Center     Atomic      Atomic             Coordinates (Angstroms)
 Number     Number       Type             X           Y           Z
 ---------------------------------------------------------------------
      1          6           0       -3.043160   -0.058755    0.900206
      2          6           0       -2.406543   -1.264174    0.546544
      3          6           0       -1.281794   -1.266684   -0.271239
      4          6           0       -0.744595   -0.064107   -0.770400
      5          6           0        0.743279    0.072373   -0.771369
      6          6           0        1.606258   -1.044408   -0.739976
      7          6           0        2.730658   -1.056103    0.082696
      8          6           0        3.041576    0.048401    0.907134
      9          6           0        2.412237    1.258289    0.550266
     10          6           0        1.286911    1.269469   -0.265680
     11          6           0       -1.609168    1.051942   -0.731620
     12          6           0       -2.736194    1.054905    0.088555
     13          1           0       -2.643702   -2.177005    1.083977
     14          1           0       -0.702253   -2.182485   -0.329174
     15          1           0        1.321402   -1.967395   -1.238623
     16          1           0        3.274645   -1.990322    0.191583
     17          1           0        2.660359    2.177137    1.070789
     18          1           0        0.715461    2.190416   -0.325272
     19          1           0       -1.324730    1.978364   -1.224248
     20          1           0       -3.289276    1.983391    0.207643
     21          1           0       -3.691661    0.006250    1.700359
     22          1           0        3.682955   -0.025244    1.712265
 ---------------------------------------------------------------------
 Rotational constants (GHZ):      2.1735331      0.6388780      0.5687501
 Standard basis: 6-31G(d) (6D, 7F)
 There are   200 symmetry adapted cartesian basis functions of A   symmetry.
 There are   200 symmetry adapted basis functions of A   symmetry.
   200 basis functions,   376 primitive gaussians,   200 cartesian basis functions
    41 alpha electrons       41 beta electrons
       nuclear repulsion energy       608.0986112050 Hartrees.
 NAtoms=   22 NActive=   22 NUniq=   22 SFac= 1.00D+00 NAtFMM=   60 NAOKFM=F Big=F
 Integral buffers will be    131072 words long.
 Raffenetti 2 integral format.
 Two-electron integral symmetry is turned on.
 One-electron integrals computed using PRISM.
 NBasis=   200 RedAO= T EigKep=  5.68D-04  NBF=   200
 NBsUse=   200 1.00D-06 EigRej= -1.00D+00 NBFU=   200
 ExpMin= 1.61D-01 ExpMax= 3.05D+03 ExpMxC= 4.57D+02 IAcc=1 IRadAn=         1 AccDes= 0.00D+00
 Harris functional with IExCor=  402 and IRadAn=       1 diagonalized for initial guess.
 HarFok:  IExCor=  402 AccDes= 0.00D+00 IRadAn=         1 IDoV= 1 UseB2=F ITyADJ=14
 ICtDFT=  3500011 ScaDFX=  1.000000  1.000000  1.000000  1.000000
 FoFCou: FMM=F IPFlag=           0 FMFlag=      100000 FMFlg1=           0
         NFxFlg=           0 DoJE=T BraDBF=F KetDBF=T FulRan=T
         wScrn=  0.000000 ICntrl=     500 IOpCl=  0 I1Cent=   200000004 NGrid=           0
         NMat0=    1 NMatS0=      1 NMatT0=    0 NMatD0=    1 NMtDS0=    0 NMtDT0=    0
 Petite list used in FoFCou.
 Requested convergence on RMS density matrix=1.00D-08 within 128 cycles.
 Requested convergence on MAX density matrix=1.00D-06.
 Requested convergence on             energy=1.00D-06.
 No special actions if energy rises.
 Integral accuracy reduced to 1.0D-05 until final iterations.
 Initial convergence to 1.0D-05 achieved.  Increase integral accuracy.
 SCF Done:  E(RB3LYP) =  -463.248113858     A.U. after   14 cycles
            NFock= 14  Conv=0.44D-08     -V/T= 2.0098

 **********************************************************************

            Population analysis using the SCF density.

 **********************************************************************

 Orbital symmetries:
       Occupied  (A) (A) (A) (A) (A) (A) (A) (A) (A) (A) (A) (A)
                 (A) (A) (A) (A) (A) (A) (A) (A) (A) (A) (A) (A)
                 (A) (A) (A) (A) (A) (A) (A) (A) (A) (A) (A) (A)
                 (A) (A) (A) (A) (A)
       Virtual   (A) (A) (A) (A) (A) (A) (A) (A) (A) (A) (A) (A)
                 (A) (A) (A) (A) (A) (A) (A) (A) (A) (A) (A) (A)
                 (A) (A) (A) (A) (A) (A) (A) (A) (A) (A) (A) (A)
                 (A) (A) (A) (A) (A) (A) (A) (A) (A) (A) (A) (A)
                 (A) (A) (A) (A) (A) (A) (A) (A) (A) (A) (A) (A)
                 (A) (A) (A) (A) (A) (A) (A) (A) (A) (A) (A) (A)
                 (A) (A) (A) (A) (A) (A) (A) (A) (A) (A) (A) (A)
                 (A) (A) (A) (A) (A) (A) (A) (A) (A) (A) (A) (A)
                 (A) (A) (A) (A) (A) (A) (A) (A) (A) (A) (A) (A)
                 (A) (A) (A) (A) (A) (A) (A) (A) (A) (A) (A) (A)
                 (A) (A) (A) (A) (A) (A) (A) (A) (A) (A) (A) (A)
                 (A) (A) (A) (A) (A) (A) (A) (A) (A) (A) (A) (A)
                 (A) (A) (A) (A) (A) (A) (A) (A) (A) (A) (A) (A)
                 (A) (A) (A)
 The electronic state is 1-A.
 Alpha  occ. eigenvalues --  -10.20206 -10.20172 -10.19022 -10.19013 -10.18877
 Alpha  occ. eigenvalues --  -10.18873 -10.18752 -10.18717 -10.18710 -10.18688
 Alpha  occ. eigenvalues --  -10.18504 -10.18451  -0.86417  -0.83931  -0.76997
 Alpha  occ. eigenvalues --   -0.74585  -0.73611  -0.71650  -0.62405  -0.61056
 Alpha  occ. eigenvalues --   -0.57957  -0.57799  -0.52805  -0.50250  -0.47725
 Alpha  occ. eigenvalues --   -0.45393  -0.43576  -0.42413  -0.42149  -0.41926
 Alpha  occ. eigenvalues --   -0.40921  -0.38416  -0.38036  -0.34541  -0.33844
 Alpha  occ. eigenvalues --   -0.33184  -0.32375  -0.26838  -0.25022  -0.24149
 Alpha  occ. eigenvalues --   -0.20535
 Alpha virt. eigenvalues --   -0.03703  -0.00777   0.01483   0.01783   0.09215
 Alpha virt. eigenvalues --    0.10700   0.12346   0.12405   0.13914   0.15192
 Alpha virt. eigenvalues --    0.15765   0.17161   0.18586   0.18902   0.21563
 Alpha virt. eigenvalues --    0.23226   0.27234   0.27411   0.28835   0.29813
 Alpha virt. eigenvalues --    0.30700   0.32644   0.36103   0.38052   0.38379
 Alpha virt. eigenvalues --    0.45134   0.50113   0.52200   0.52922   0.53516
 Alpha virt. eigenvalues --    0.53670   0.54344   0.55189   0.56876   0.58152
 Alpha virt. eigenvalues --    0.59025   0.59675   0.59854   0.60319   0.60847
 Alpha virt. eigenvalues --    0.61092   0.61387   0.61535   0.62631   0.63362
 Alpha virt. eigenvalues --    0.63653   0.65596   0.67225   0.67858   0.68297
 Alpha virt. eigenvalues --    0.69936   0.73654   0.76487   0.82897   0.83715
 Alpha virt. eigenvalues --    0.84522   0.85085   0.85359   0.85663   0.87147
 Alpha virt. eigenvalues --    0.88937   0.90406   0.92175   0.92816   0.93334
 Alpha virt. eigenvalues --    0.93391   0.94560   0.94727   1.00115   1.01046
 Alpha virt. eigenvalues --    1.02290   1.02486   1.04094   1.04669   1.09328
 Alpha virt. eigenvalues --    1.13152   1.13292   1.14374   1.17238   1.22674
 Alpha virt. eigenvalues --    1.25467   1.26842   1.29796   1.36264   1.37623
 Alpha virt. eigenvalues --    1.41370   1.42631   1.46496   1.50292   1.51547
 Alpha virt. eigenvalues --    1.51876   1.52455   1.52478   1.56575   1.60148
 Alpha virt. eigenvalues --    1.61064   1.66182   1.68668   1.77307   1.79367
 Alpha virt. eigenvalues --    1.83271   1.83668   1.85617   1.89677   1.92483
 Alpha virt. eigenvalues --    1.96880   1.98522   1.99613   1.99770   2.03113
 Alpha virt. eigenvalues --    2.03712   2.08478   2.08937   2.10164   2.11715
 Alpha virt. eigenvalues --    2.13241   2.17064   2.20161   2.20243   2.21804
 Alpha virt. eigenvalues --    2.25065   2.28773   2.30743   2.35473   2.37328
 Alpha virt. eigenvalues --    2.38561   2.45437   2.49799   2.54448   2.56859
 Alpha virt. eigenvalues --    2.58510   2.59808   2.61929   2.64099   2.67831
 Alpha virt. eigenvalues --    2.68668   2.72794   2.74944   2.75110   2.77905
 Alpha virt. eigenvalues --    2.79603   2.83004   2.86811   2.97261   3.15260
 Alpha virt. eigenvalues --    3.28470   3.39764   4.07619   4.09394   4.11326
 Alpha virt. eigenvalues --    4.11978   4.13256   4.23876   4.29849   4.33787
 Alpha virt. eigenvalues --    4.38811   4.42904   4.59483   4.72283
          Condensed to atoms (all electrons):
               1          2          3          4          5          6
     1  C    4.863785   0.543030  -0.039239  -0.034343   0.000486   0.000059
     2  C    0.543030   4.877111   0.527192  -0.030037   0.006127   0.000317
     3  C   -0.039239   0.527192   4.996642   0.539412  -0.050579  -0.023105
     4  C   -0.034343  -0.030037   0.539412   4.772886   0.366177  -0.048692
     5  C    0.000486   0.006127  -0.050579   0.366177   4.773641   0.503553
     6  C    0.000059   0.000317  -0.023105  -0.048692   0.503553   5.043871
     7  C    0.000001  -0.000039   0.000842   0.003328  -0.024309   0.525895
     8  C   -0.000004  -0.000009   0.000214   0.000486  -0.034519  -0.039234
     9  C   -0.000009   0.000002   0.000216   0.006115  -0.029813  -0.044413
    10  C    0.000203   0.000213   0.000400  -0.050526   0.539262  -0.067215
    11  C   -0.038833  -0.044529  -0.066714   0.502999  -0.048687   0.008050
    12  C    0.539039  -0.022738  -0.041395  -0.024177   0.003350  -0.000098
    13  H   -0.045177   0.360458  -0.042273   0.004579  -0.000170  -0.000022
    14  H    0.004677  -0.043252   0.348739  -0.038169  -0.013839   0.010400
    15  H   -0.000002   0.000177   0.000905  -0.007424  -0.037826   0.350651
    16  H   -0.000000  -0.000001   0.000013  -0.000125   0.004087  -0.041078
    17  H   -0.000000   0.000000   0.000002  -0.000172   0.004676   0.000632
    18  H    0.000006  -0.000025  -0.000194  -0.013596  -0.038203   0.006198
    19  H    0.004532   0.000420   0.005545  -0.037783  -0.007441  -0.000188
    20  H   -0.044965   0.004820   0.000552   0.004019  -0.000123   0.000003
    21  H    0.366505  -0.045482   0.005538   0.000616   0.000012  -0.000001
    22  H    0.000000   0.000000  -0.000003   0.000012   0.000612   0.005252
               7          8          9         10         11         12
     1  C    0.000001  -0.000004  -0.000009   0.000203  -0.038833   0.539039
     2  C   -0.000039  -0.000009   0.000002   0.000213  -0.044529  -0.022738
     3  C    0.000842   0.000214   0.000216   0.000400  -0.066714  -0.041395
     4  C    0.003328   0.000486   0.006115  -0.050526   0.502999  -0.024177
     5  C   -0.024309  -0.034519  -0.029813   0.539262  -0.048687   0.003350
     6  C    0.525895  -0.039234  -0.044413  -0.067215   0.008050  -0.000098
     7  C    4.877179   0.538019  -0.022665  -0.041417  -0.000099   0.000002
     8  C    0.538019   4.866826   0.541478  -0.039261   0.000060   0.000001
     9  C   -0.022665   0.541478   4.876891   0.528816   0.000296  -0.000037
    10  C   -0.041417  -0.039261   0.528816   4.994809  -0.022706   0.000855
    11  C   -0.000099   0.000060   0.000296  -0.022706   5.044230   0.525359
    12  C    0.000002   0.000001  -0.000037   0.000855   0.525359   4.876008
    13  H   -0.000001  -0.000000   0.000000   0.000002   0.000621   0.004759
    14  H    0.000323   0.000007  -0.000025  -0.000195   0.006167   0.000430
    15  H   -0.043271   0.004538   0.000417   0.005555  -0.000191   0.000004
    16  H    0.359814  -0.044984   0.004773   0.000577   0.000003  -0.000000
    17  H    0.004728  -0.045271   0.360235  -0.042349  -0.000021  -0.000001
    18  H    0.000420   0.004691  -0.043329   0.348835   0.010191   0.000295
    19  H    0.000004  -0.000002   0.000172   0.000937   0.350651  -0.043359
    20  H   -0.000000  -0.000000  -0.000001   0.000013  -0.041078   0.359980
    21  H    0.000000   0.000000   0.000000  -0.000003   0.005338  -0.045294
    22  H   -0.044978   0.366867  -0.045203   0.005429  -0.000001   0.000000
              13         14         15         16         17         18
     1  C   -0.045177   0.004677  -0.000002  -0.000000  -0.000000   0.000006
     2  C    0.360458  -0.043252   0.000177  -0.000001   0.000000  -0.000025
     3  C   -0.042273   0.348739   0.000905   0.000013   0.000002  -0.000194
     4  C    0.004579  -0.038169  -0.007424  -0.000125  -0.000172  -0.013596
     5  C   -0.000170  -0.013839  -0.037826   0.004087   0.004676  -0.038203
     6  C   -0.000022   0.010400   0.350651  -0.041078   0.000632   0.006198
     7  C   -0.000001   0.000323  -0.043271   0.359814   0.004728   0.000420
     8  C   -0.000000   0.000007   0.004538  -0.044984  -0.045271   0.004691
     9  C    0.000000  -0.000025   0.000417   0.004773   0.360235  -0.043329
    10  C    0.000002  -0.000195   0.005555   0.000577  -0.042349   0.348835
    11  C    0.000621   0.006167  -0.000191   0.000003  -0.000021   0.010191
    12  C    0.004759   0.000430   0.000004  -0.000000  -0.000001   0.000295
    13  H    0.600780  -0.007302   0.000006   0.000000   0.000000   0.000000
    14  H   -0.007302   0.598994   0.002847   0.000027   0.000000  -0.000006
    15  H    0.000006   0.002847   0.596921  -0.007086   0.000015  -0.000198
    16  H    0.000000   0.000027  -0.007086   0.600166  -0.000205   0.000015
    17  H    0.000000   0.000000   0.000015  -0.000205   0.601394  -0.007472
    18  H    0.000000  -0.000006  -0.000198   0.000015  -0.007472   0.599316
    19  H    0.000015  -0.000196   0.000001   0.000000   0.000006   0.002843
    20  H   -0.000205   0.000015   0.000000   0.000000   0.000000   0.000024
    21  H   -0.005054  -0.000182  -0.000000  -0.000000  -0.000000  -0.000001
    22  H   -0.000000  -0.000001  -0.000171  -0.004707  -0.004890  -0.000179
              19         20         21         22
     1  C    0.004532  -0.044965   0.366505   0.000000
     2  C    0.000420   0.004820  -0.045482   0.000000
     3  C    0.005545   0.000552   0.005538  -0.000003
     4  C   -0.037783   0.004019   0.000616   0.000012
     5  C   -0.007441  -0.000123   0.000012   0.000612
     6  C   -0.000188   0.000003  -0.000001   0.005252
     7  C    0.000004  -0.000000   0.000000  -0.044978
     8  C   -0.000002  -0.000000   0.000000   0.366867
     9  C    0.000172  -0.000001   0.000000  -0.045203
    10  C    0.000937   0.000013  -0.000003   0.005429
    11  C    0.350651  -0.041078   0.005338  -0.000001
    12  C   -0.043359   0.359980  -0.045294   0.000000
    13  H    0.000015  -0.000205  -0.005054  -0.000000
    14  H   -0.000196   0.000015  -0.000182  -0.000001
    15  H    0.000001   0.000000  -0.000000  -0.000171
    16  H    0.000000   0.000000  -0.000000  -0.004707
    17  H    0.000006   0.000000  -0.000000  -0.004890
    18  H    0.002843   0.000024  -0.000001  -0.000179
    19  H    0.596857  -0.006902  -0.000174  -0.000000
    20  H   -0.006902   0.599694  -0.004828  -0.000000
    21  H   -0.000174  -0.004828   0.589115  -0.000000
    22  H   -0.000000  -0.000000  -0.000000   0.587301
 Mulliken charges:
               1
     1  C   -0.119751
     2  C   -0.133758
     3  C   -0.162709
     4  C    0.084414
     5  C    0.083525
     6  C   -0.190835
     7  C   -0.133776
     8  C   -0.119900
     9  C   -0.133916
    10  C   -0.162231
    11  C   -0.191106
    12  C   -0.132982
    13  H    0.128984
    14  H    0.130541
    15  H    0.134132
    16  H    0.128710
    17  H    0.128694
    18  H    0.130367
    19  H    0.134061
    20  H    0.128983
    21  H    0.133895
    22  H    0.134659
 Sum of Mulliken charges =  -0.00000
 Mulliken charges with hydrogens summed into heavy atoms:
               1
     1  C    0.014143
     2  C   -0.004774
     3  C   -0.032168
     4  C    0.084414
     5  C    0.083525
     6  C   -0.056703
     7  C   -0.005066
     8  C    0.014759
     9  C   -0.005222
    10  C   -0.031864
    11  C   -0.057045
    12  C   -0.004000
 Electronic spatial extent (au):  <R**2>=           2056.9121
 Charge=             -0.0000 electrons
 Dipole moment (field-independent basis, Debye):
    X=              0.0007    Y=              0.0010    Z=              1.1037  Tot=              1.1037
 Quadrupole moment (field-independent basis, Debye-Ang):
   XX=            -67.7338   YY=            -62.1888   ZZ=            -70.0266
   XY=             -2.3442   XZ=             -0.0104   YZ=             -0.0201
 Traceless Quadrupole moment (field-independent basis, Debye-Ang):
   XX=             -1.0840   YY=              4.4609   ZZ=             -3.3769
   XY=             -2.3442   XZ=             -0.0104   YZ=             -0.0201
 Octapole moment (field-independent basis, Debye-Ang**2):
  XXX=             -0.1862  YYY=              0.1067  ZZZ=              7.4344  XYY=              0.0911
  XXY=              0.1321  XXZ=             27.0205  XZZ=              0.0522  YZZ=             -0.1124
  YYZ=              0.4754  XYZ=              5.4249
 Hexadecapole moment (field-independent basis, Debye-Ang**3):
 XXXX=          -2037.3951 YYYY=           -513.1633 ZZZZ=           -267.4934 XXXY=            -39.8740
 XXXZ=             -0.1457 YYYX=             -8.1887 YYYZ=             -0.0762 ZZZX=              0.1648
 ZZZY=             -0.1260 XXYY=           -401.7873 XXZZ=           -364.7203 YYZZ=           -133.6972
 XXYZ=             -0.0808 YYXZ=             -0.2146 ZZXY=              2.1978
 N-N= 6.080986112050D+02 E-N=-2.288441623979D+03  KE= 4.587631428034D+02
 Calling FoFJK, ICntrl=      2127 FMM=F ISym2X=0 I1Cent= 0 IOpClX= 0 NMat=1 NMatS=1 NMatT=0.
 ***** Axes restored to original set *****
 -------------------------------------------------------------------
 Center     Atomic                   Forces (Hartrees/Bohr)
 Number     Number              X              Y              Z
 -------------------------------------------------------------------
      1        6          -0.000000000   -0.000000000    0.000000000
      2        6          -0.000000000   -0.000000000    0.000000000
      3        6          -0.000000000   -0.000000000    0.000000000
      4        6          -0.000000000   -0.000000000    0.000000000
      5        6          -0.000000000   -0.000000000    0.000000000
      6        6          -0.000000000   -0.000000000    0.000000000
      7        6          -0.000000000   -0.000000000    0.000000000
      8        6          -0.000000000   -0.000000000    0.000000000
      9        6          -0.000000000   -0.000000000    0.000000000
     10        6          -0.000000000   -0.000000000    0.000000000
     11        6          -0.000000000   -0.000000000    0.000000000
     12        6          -0.000000000   -0.000000000    0.000000000
     13        1          -0.000000000   -0.000000000    0.000000000
     14        1          -0.000000000   -0.000000000    0.000000000
     15        1          -0.000000000   -0.000000000    0.000000000
     16        1          -0.000000000   -0.000000000    0.000000000
     17        1          -0.000000000   -0.000000000    0.000000000
     18        1          -0.000000000   -0.000000000    0.000000000
     19        1          -0.000000000   -0.000000000    0.000000000
     20        1          -0.000000000   -0.000000000    0.000000000
     21        1          -0.005310265    0.042805368   -0.001693134
     22        1           0.043093499   -0.000452589   -0.001068761
 -------------------------------------------------------------------
 Cartesian Forces:  Max     0.043093499 RMS     0.007509350

 GradGradGradGradGradGradGradGradGradGradGradGradGradGradGradGradGradGrad
 Berny optimization.
 FormGI is forming the generalized inverse of G from B-inverse, IUseBI=4.
 Internal  Forces:  Max     0.042513943 RMS     0.009732171
 Search for a local minimum.
 Step number   1 out of a maximum of   84
 All quantities printed in internal units (Hartrees-Bohrs-Radians)
 Mixed Optimization -- RFO/linear search
 Second derivative matrix not updated -- first step.
 ITU=  0
     Eigenvalues ---    0.01939   0.01955   0.16000   0.16000   0.42477
     Eigenvalues ---    0.424771000.000001000.000001000.000001000.00000
     Eigenvalues --- 1000.000001000.000001000.000001000.000001000.00000
     Eigenvalues --- 1000.000001000.000001000.000001000.000001000.00000
     Eigenvalues --- 1000.000001000.000001000.000001000.000001000.00000
     Eigenvalues --- 1000.000001000.000001000.000001000.000001000.00000
     Eigenvalues --- 1000.000001000.000001000.000001000.000001000.00000
     Eigenvalues --- 1000.000001000.000001000.000001000.000001000.00000
     Eigenvalues --- 1000.000001000.000001000.000001000.000001000.00000
     Eigenvalues --- 1000.000001000.000001000.000001000.000001000.00000
     Eigenvalues --- 1000.000001000.000001000.000001000.000001000.00000
     Eigenvalues --- 1000.000001000.000001000.000001000.000001000.00000
     Eigenvalues --- 1000.000001000.000001000.000001000.000001000.00000
     Eigenvalues --- 1000.000001000.000001000.000001000.000001000.00000
     Eigenvalues --- 1000.000001000.000001000.000001000.00000
 RFO step:  Lambda=-1.09097610D-02 EMin= 1.93925953D-02
 Linear search not attempted -- first point.
 Iteration  1 RMS(Cart)=  0.03245876 RMS(Int)=  0.00216369
 Iteration  2 RMS(Cart)=  0.00182262 RMS(Int)=  0.00060450
 Iteration  3 RMS(Cart)=  0.00000618 RMS(Int)=  0.00060315
 New curvilinear step failed, DQL= 4.41D-08 SP=-9.75D-02.
 ITry= 1 IFail=1 DXMaxC= 1.64D-01 DCOld= 1.00D+10 DXMaxT= 3.00D-01 DXLimC= 3.00D+00 Rises=F
 Iteration  1 RMS(Cart)=  0.02921288 RMS(Int)=  0.00175543
 Iteration  2 RMS(Cart)=  0.00147352 RMS(Int)=  0.00048945
 Iteration  3 RMS(Cart)=  0.00000407 RMS(Int)=  0.00048857
 New curvilinear step failed, DQL= 2.36D-08 SP=-1.01D-01.
 ITry= 2 IFail=1 DXMaxC= 1.47D-01 DCOld= 1.00D+10 DXMaxT= 3.00D-01 DXLimC= 3.00D+00 Rises=F
 Iteration  1 RMS(Cart)=  0.02596700 RMS(Int)=  0.00138915
 Iteration  2 RMS(Cart)=  0.00116209 RMS(Int)=  0.00038660
 Iteration  3 RMS(Cart)=  0.00000255 RMS(Int)=  0.00038605
 New curvilinear step failed, DQL= 1.22D-08 SP=-9.73D-02.
 ITry= 3 IFail=1 DXMaxC= 1.30D-01 DCOld= 1.00D+10 DXMaxT= 3.00D-01 DXLimC= 3.00D+00 Rises=F
 Iteration  1 RMS(Cart)=  0.02272113 RMS(Int)=  0.00106514
 Iteration  2 RMS(Cart)=  0.00088808 RMS(Int)=  0.00029590
 Iteration  3 RMS(Cart)=  0.00000150 RMS(Int)=  0.00029558
 Iteration  4 RMS(Cart)=  0.00000000 RMS(Int)=  0.00029558
 ITry= 4 IFail=0 DXMaxC= 1.13D-01 DCOld= 1.00D+10 DXMaxT= 3.00D-01 DXLimC= 3.00D+00 Rises=F
 Variable       Old X    -DE/DX   Delta X   Delta X   Delta X     New X
                                 (Linear)    (Quad)   (Total)
    X1       -6.52417  -0.00745   0.00000   0.00000   0.00000  -6.52417
    Y1        1.34586   0.03681   0.00000   0.00000   0.00000   1.34586
    Z1        0.21222  -0.00062   0.00000   0.00000  -0.00000   0.21222
    X2       -5.94678   0.00080   0.00000   0.00000   0.00000  -5.94678
    Y2        0.09664   0.00275   0.00000   0.00000   0.00000   0.09664
    Z2        2.49013   0.00131   0.00000   0.00000   0.00000   2.49013
    X3       -5.39077   0.00180   0.00000   0.00000   0.00000  -5.39077
    Y3       -2.47157   0.00039   0.00000   0.00000  -0.00000  -2.47157
    Z3        2.52144  -0.00024   0.00000   0.00000   0.00000   2.52144
    X4       -5.38706   0.00000   0.00000   0.00000   0.00000  -5.38706
    Y4       -3.90170  -0.00000   0.00000   0.00000  -0.00000  -3.90170
    Z4        0.27656   0.00000   0.00000   0.00000   0.00000   0.27656
    X5       -3.30808  -0.00000   0.00000   0.00000   0.00000  -3.30808
    Y5       -5.78322   0.00000   0.00000   0.00000   0.00000  -5.78322
    Z5       -0.05469  -0.00000   0.00000   0.00000   0.00000  -0.05469
    X6       -1.93748   0.00021   0.00000   0.00000  -0.00000  -1.93748
    Y6       -6.77922   0.00183   0.00000   0.00000   0.00000  -6.77922
    Z6        2.00596   0.00074   0.00000   0.00000   0.00000   2.00596
    X7        0.68017   0.00260   0.00000   0.00000   0.00000   0.68017
    Y7       -7.03700   0.00042   0.00000   0.00000   0.00000  -7.03700
    Z7        1.88925   0.00176   0.00000   0.00000   0.00000   1.88925
    X8        2.03862   0.03744   0.00000   0.00000   0.00000   2.03862
    Y8       -6.31443  -0.00347   0.00000   0.00000   0.00000  -6.31443
    Z8       -0.29281  -0.00158   0.00000   0.00000  -0.00000  -0.29281
    X9        0.57826   0.00249   0.00000   0.00000  -0.00000   0.57826
    Y9       -6.07492   0.00104   0.00000   0.00000   0.00000  -6.07492
    Z9       -2.50789  -0.00153   0.00000   0.00000   0.00000  -2.50789
   X10       -2.03219   0.00020   0.00000   0.00000  -0.00000  -2.03219
   Y10       -5.80649   0.00195   0.00000   0.00000   0.00000  -5.80649
   Z10       -2.39084   0.00008   0.00000   0.00000  -0.00000  -2.39084
   X11       -6.67166   0.00165   0.00000   0.00000   0.00000  -6.67166
   Y11       -2.80486   0.00035   0.00000   0.00000  -0.00000  -2.80486
   Z11       -1.78970  -0.00084   0.00000   0.00000  -0.00000  -1.78970
   X12       -7.22792  -0.00004   0.00000   0.00000   0.00000  -7.22792
   Y12       -0.23043   0.00257   0.00000   0.00000   0.00000  -0.23043
   Z12       -1.82200  -0.00198   0.00000   0.00000  -0.00000  -1.82200
   X13       -5.51023  -0.00102   0.00000   0.00000   0.00000  -5.51023
   Y13        1.19047   0.00001   0.00000   0.00000   0.00000   1.19047
   Z13        4.16968   0.00026   0.00000   0.00000   0.00000   4.16968
   X14       -4.55233  -0.00000   0.00000   0.00000   0.00000  -4.55233
   Y14       -3.24472  -0.00000   0.00000   0.00000   0.00000  -3.24472
   Z14        4.22605   0.00000   0.00000   0.00000   0.00000   4.22605
   X15       -2.86881  -0.00000   0.00000   0.00000   0.00000  -2.86881
   Y15       -7.08358   0.00000   0.00000   0.00000   0.00000  -7.08358
   Z15        3.81148  -0.00000   0.00000   0.00000   0.00000   3.81148
   X16        1.68008   0.00004   0.00000   0.00000  -0.00000   1.68008
   Y16       -7.52971  -0.00113   0.00000   0.00000   0.00000  -7.52971
   Z16        3.61355  -0.00035   0.00000   0.00000   0.00000   3.61355
   X17        1.48580   0.00010   0.00000   0.00000   0.00000   1.48580
   Y17       -5.69331  -0.00109   0.00000   0.00000   0.00000  -5.69331
   Z17       -4.30599  -0.00018   0.00000   0.00000  -0.00000  -4.30599
   X18       -3.00744   0.00000   0.00000   0.00000   0.00000  -3.00744
   Y18       -5.20922  -0.00000   0.00000   0.00000   0.00000  -5.20922
   Z18       -4.09371   0.00000   0.00000   0.00000  -0.00000  -4.09371
   X19       -6.98677  -0.00000   0.00000   0.00000   0.00000  -6.98677
   Y19       -3.89575   0.00000   0.00000   0.00000   0.00000  -3.89575
   Z19       -3.50176   0.00000   0.00000   0.00000   0.00000  -3.50176
   X20       -7.95359  -0.00106   0.00000   0.00000   0.00000  -7.95359
   Y20        0.59494  -0.00006   0.00000   0.00000   0.00000   0.59494
   Z20       -3.55801   0.00041   0.00000   0.00000   0.00000  -3.55801
    R1        1.95020   0.04251   0.00000   0.09758   0.06884   2.01904
    R2        1.95020   0.04238   0.00000   0.09728   0.06869   2.01889
    A1        2.13256   0.01041   0.00000   0.00032  -0.00091   2.13164
    A2        2.13256   0.01030   0.00000  -0.00032  -0.00136   2.13121
    A3        2.13673   0.01026   0.00000  -0.00034  -0.00151   2.13523
    A4        2.13673   0.01038   0.00000   0.00034  -0.00104   2.13569
    D1       -2.82765  -0.00419   0.00000  -0.10129  -0.07095  -2.89859
    D2        0.06999  -0.00187   0.00000  -0.10129  -0.07095  -0.00096
    D3        2.82878   0.00426   0.00000   0.10129   0.07093   2.89971
    D4       -0.14955   0.00203   0.00000   0.10129   0.07093  -0.07862
    D5        2.82082   0.00448   0.00000   0.10701   0.07494   2.89575
    D6       -0.15382   0.00210   0.00000   0.10701   0.07494  -0.07888
    D7       -2.81545  -0.00442   0.00000  -0.10701  -0.07496  -2.89041
    D8        0.09628  -0.00197   0.00000  -0.10701  -0.07496   0.02132
         Item               Value     Threshold  Converged?
 Maximum Force            0.042514     0.000450     NO 
 RMS     Force            0.016221     0.000300     NO 
 Maximum Displacement     0.113350     0.001800     NO 
 RMS     Displacement     0.023083     0.001200     NO 
 Predicted change in Energy=-5.212272D-03
 GradGradGradGradGradGradGradGradGradGradGradGradGradGradGradGradGradGrad

                          Input orientation:                          
 ---------------------------------------------------------------------
 Center     Atomic      Atomic             Coordinates (Angstroms)
 Number     Number       Type             X           Y           Z
 ---------------------------------------------------------------------
      1          6           0       -3.452440    0.712200    0.112300
      2          6           0       -3.146900    0.051140    1.317720
      3          6           0       -2.852670   -1.307900    1.334290
      4          6           0       -2.850710   -2.064690    0.146350
      5          6           0       -1.750560   -3.060350   -0.028940
      6          6           0       -1.025270   -3.587410    1.061510
      7          6           0        0.359930   -3.723820    0.999750
      8          6           0        1.078790   -3.341450   -0.154950
      9          6           0        0.306000   -3.214710   -1.327120
     10          6           0       -1.075390   -3.072660   -1.265180
     11          6           0       -3.530490   -1.484270   -0.947070
     12          6           0       -3.824850   -0.121940   -0.964160
     13          1           0       -2.915890    0.629970    2.206500
     14          1           0       -2.408990   -1.717030    2.236330
     15          1           0       -1.518110   -3.748470    2.016950
     16          1           0        0.889060   -3.984550    1.912210
     17          1           0        0.786250   -3.012770   -2.278630
     18          1           0       -1.591470   -2.756600   -2.166300
     19          1           0       -3.697240   -2.061540   -1.853050
     20          1           0       -4.208860    0.314830   -1.882820
     21          1           0       -3.467062    1.777832    0.036441
     22          1           0        2.140979   -3.226856   -0.155031
 ---------------------------------------------------------------------
                    Distance matrix (angstroms):
                    1          2          3          4          5
     1  C    0.000000
     2  C    1.408330   0.000000
     3  C    2.435937   1.390624   0.000000
     4  C    2.841541   2.436508   1.408523   0.000000
     5  C    4.141072   3.666692   2.478734   1.494120   0.000000
     6  C    5.027803   4.219716   2.934274   2.547239   1.411708
     7  C    5.916080   5.162295   4.033533   3.713383   2.439788
     8  C    6.085684   5.615593   4.670068   4.142689   2.846070
     9  C    5.623026   5.439069   4.549310   3.668580   2.436911
    10  C    4.676856   4.551994   3.609757   2.481971   1.408650
    11  C    2.439844   2.762951   2.386451   1.412287   2.548557
    12  C    1.411823   2.386744   2.763061   2.440586   3.716392
    13  H    2.163405   1.085514   2.126050   3.392589   4.469189
    14  H    3.391379   2.124801   1.085318   2.164255   2.714680
    15  H    5.221772   4.192722   2.864168   2.847821   2.170992
    16  H    6.644378   5.738396   4.636700   4.559606   3.404380
    17  H    6.128494   6.147434   5.403842   4.472903   3.390984
    18  H    4.548384   4.737210   3.992930   2.722641   2.164690
    19  H    3.408249   3.849685   3.382367   2.171226   2.848607
    20  H    2.170387   3.382417   3.849974   3.409431   4.568583
    21  H    1.068429   2.173855   3.403473   3.893192   5.134069
    22  H    6.846456   6.393428   5.553107   5.134045   3.897140
                    6          7          8          9         10
     6  C    0.000000
     7  C    1.393270   0.000000
     8  C    2.442814   1.412904   0.000000
     9  C    2.759844   2.382525   1.409699   0.000000
    10  C    2.383478   2.759359   2.438309   1.390055   0.000000
    11  C    3.838453   4.892960   5.032100   4.225815   2.941376
    12  C    4.893922   5.860279   5.921634   5.173093   4.044365
    13  H    4.761485   5.580567   6.107871   6.135846   5.399025
    14  H    2.606378   3.636379   4.530074   4.723599   3.984569
    15  H    1.087059   2.135963   3.409795   3.846437   3.380103
    16  H    2.132151   1.086527   2.173183   3.380218   3.845311
    17  H    3.842961   3.381585   2.168785   1.084800   2.120465
    18  H    3.380767   3.842831   3.393798   2.124731   1.085472
    19  H    4.238203   5.230896   5.228018   4.199087   2.870897
    20  H    5.833678   6.744905   6.656813   5.757640   4.655663
    21  H    5.983221   6.770673   6.848975   6.404746   5.562516
    22  H    3.411027   2.180052   1.068353   2.177404   3.406059
                   11         12         13         14         15
    11  C    0.000000
    12  C    1.393873   0.000000
    13  H    3.846134   3.382996   0.000000
    14  H    3.383190   3.846051   2.401301   0.000000
    15  H    4.238123   5.230658   4.600049   2.229023   0.000000
    16  H    5.827461   6.739006   5.988159   4.015449   2.420986
    17  H    4.769026   5.598837   6.862346   5.680965   4.929841
    18  H    2.620142   3.657125   5.687207   4.596977   4.299857
    19  H    1.087127   2.137395   4.933019   4.301314   4.750920
    20  H    2.138358   1.087275   4.300421   4.933091   6.241694
    21  H    3.407730   2.176775   2.516055   4.262991   6.185535
    22  H    5.985774   6.773943   6.784089   5.357276   4.287017
                   16         17         18         19         20
    16  H    0.000000
    17  H    4.303262   0.000000
    18  H    4.929009   2.394116   0.000000
    19  H    6.237732   4.603003   2.239531   0.000000
    20  H    7.673051   6.015040   4.045340   2.431003   0.000000
    21  H    7.463200   6.811761   5.378754   4.285316   2.524718
    22  H    2.532763   2.528002   4.265855   6.190802   7.473235
                   21         22
    21  H    0.000000
    22  H    7.518889   0.000000
 Stoichiometry    C12H10
 Framework group  C1[X(C12H10)]
 Deg. of freedom    60
 Full point group                 C1      NOp   1
 Largest Abelian subgroup         C1      NOp   1
 Largest concise Abelian subgroup C1      NOp   1
                         Standard orientation:                         
 ---------------------------------------------------------------------
 Center     Atomic      Atomic             Coordinates (Angstroms)
 Number     Number       Type             X           Y           Z
 ---------------------------------------------------------------------
      1          6           0       -3.043212   -0.057811    0.900512
      2          6           0       -2.406964   -1.263431    0.546872
      3          6           0       -1.282214   -1.266301   -0.270909
      4          6           0       -0.744645   -0.063897   -0.770090
      5          6           0        0.743270    0.072127   -0.771059
      6          6           0        1.605907   -1.044918   -0.739645
      7          6           0        2.730302   -1.056944    0.083029
      8          6           0        3.041557    0.047480    0.907448
      9          6           0        2.412590    1.257554    0.550558
     10          6           0        1.287268    1.269065   -0.265391
     11          6           0       -1.608877    1.052417   -0.731332
     12          6           0       -2.735903    1.055741    0.088841
     13          1           0       -2.644403   -2.176180    1.084321
     14          1           0       -0.702954   -2.182281   -0.328826
     15          1           0        1.320769   -1.967827   -1.238275
     16          1           0        3.274002   -1.991327    0.191934
     17          1           0        2.660992    2.176336    1.071065
     18          1           0        0.716101    2.190186   -0.325001
     19          1           0       -1.324153    1.978744   -1.223975
     20          1           0       -3.288700    1.984399    0.207912
     21          1           0       -3.762505   -0.004768    1.688765
     22          1           0        3.756371   -0.013767    1.699071
 ---------------------------------------------------------------------
 Rotational constants (GHZ):      2.1743718      0.6380748      0.5680583
 Standard basis: 6-31G(d) (6D, 7F)
 There are   200 symmetry adapted cartesian basis functions of A   symmetry.
 There are   200 symmetry adapted basis functions of A   symmetry.
   200 basis functions,   376 primitive gaussians,   200 cartesian basis functions
    41 alpha electrons       41 beta electrons
       nuclear repulsion energy       607.6600237984 Hartrees.
 NAtoms=   22 NActive=   22 NUniq=   22 SFac= 1.00D+00 NAtFMM=   60 NAOKFM=F Big=F
 Integral buffers will be    131072 words long.
 Raffenetti 2 integral format.
 Two-electron integral symmetry is turned on.
 One-electron integrals computed using PRISM.
 NBasis=   200 RedAO= T EigKep=  5.78D-04  NBF=   200
 NBsUse=   200 1.00D-06 EigRej= -1.00D+00 NBFU=   200
 Initial guess from the checkpoint file:  "/tmp/Gau-162806.chk"
 B after Tr=    -0.000000   -0.000000   -0.000000
         Rot=    1.000000    0.000011   -0.000012    0.000059 Ang=   0.01 deg.
 ExpMin= 1.61D-01 ExpMax= 3.05D+03 ExpMxC= 4.57D+02 IAcc=1 IRadAn=         1 AccDes= 0.00D+00
 Harris functional with IExCor=  402 and IRadAn=       1 diagonalized for initial guess.
 HarFok:  IExCor=  402 AccDes= 0.00D+00 IRadAn=         1 IDoV= 1 UseB2=F ITyADJ=14
 ICtDFT=  3500011 ScaDFX=  1.000000  1.000000  1.000000  1.000000
 FoFCou: FMM=F IPFlag=           0 FMFlag=      100000 FMFlg1=           0
         NFxFlg=           0 DoJE=T BraDBF=F KetDBF=T FulRan=T
         wScrn=  0.000000 ICntrl=     500 IOpCl=  0 I1Cent=   200000004 NGrid=           0
         NMat0=    1 NMatS0=      1 NMatT0=    0 NMatD0=    1 NMtDS0=    0 NMtDT0=    0
 Petite list used in FoFCou.
 Requested convergence on RMS density matrix=1.00D-08 within 128 cycles.
 Requested convergence on MAX density matrix=1.00D-06.
 Requested convergence on             energy=1.00D-06.
 No special actions if energy rises.
 Integral accuracy reduced to 1.0D-05 until final iterations.
 Initial convergence to 1.0D-05 achieved.  Increase integral accuracy.
 SCF Done:  E(RB3LYP) =  -463.253243119     A.U. after   12 cycles
            NFock= 12  Conv=0.48D-08     -V/T= 2.0100
 Calling FoFJK, ICntrl=      2127 FMM=F ISym2X=0 I1Cent= 0 IOpClX= 0 NMat=1 NMatS=1 NMatT=0.
 ***** Axes restored to original set *****
 -------------------------------------------------------------------
 Center     Atomic                   Forces (Hartrees/Bohr)
 Number     Number              X              Y              Z
 -------------------------------------------------------------------
      1        6          -0.000000000   -0.000000000    0.000000000
      2        6          -0.000000000   -0.000000000    0.000000000
      3        6          -0.000000000   -0.000000000    0.000000000
      4        6          -0.000000000   -0.000000000    0.000000000
      5        6          -0.000000000   -0.000000000    0.000000000
      6        6          -0.000000000   -0.000000000    0.000000000
      7        6          -0.000000000   -0.000000000    0.000000000
      8        6          -0.000000000   -0.000000000    0.000000000
      9        6          -0.000000000   -0.000000000    0.000000000
     10        6          -0.000000000   -0.000000000    0.000000000
     11        6          -0.000000000   -0.000000000    0.000000000
     12        6          -0.000000000   -0.000000000    0.000000000
     13        1          -0.000000000   -0.000000000    0.000000000
     14        1          -0.000000000   -0.000000000    0.000000000
     15        1          -0.000000000   -0.000000000    0.000000000
     16        1          -0.000000000   -0.000000000    0.000000000
     17        1          -0.000000000   -0.000000000    0.000000000
     18        1          -0.000000000   -0.000000000    0.000000000
     19        1          -0.000000000   -0.000000000    0.000000000
     20        1          -0.000000000   -0.000000000    0.000000000
     21        1          -0.004304960    0.011776999    0.000353929
     22        1           0.012105350   -0.003188391   -0.000944324
 -------------------------------------------------------------------
 Cartesian Forces:  Max     0.012105350 RMS     0.002184493

 GradGradGradGradGradGradGradGradGradGradGradGradGradGradGradGradGradGrad
 Berny optimization.
 Using GEDIIS/GDIIS optimizer.
 FormGI is forming the generalized inverse of G from B-inverse, IUseBI=4.
 Internal  Forces:  Max     0.011779960 RMS     0.002895934
 Search for a local minimum.
 Step number   2 out of a maximum of   84
 All quantities printed in internal units (Hartrees-Bohrs-Radians)
 Mixed Optimization -- RFO/linear search
 Update second derivatives using D2CorX and points    1    2
 DE= -5.13D-03 DEPred=-5.21D-03 R= 9.84D-01
 TightC=F SS=  1.41D+00  RLast= 2.28D-01 DXNew= 5.0454D-01 6.8451D-01
 Trust test= 9.84D-01 RLast= 2.28D-01 DXMaxT set to 5.05D-01
 ITU=  1  0
 Use linear search instead of GDIIS.
     Eigenvalues ---    0.01806   0.01956   0.15937   0.15944   0.42477
     Eigenvalues ---    0.457801000.000001000.000001000.000001000.00000
     Eigenvalues --- 1000.000001000.000001000.000001000.000001000.00000
     Eigenvalues --- 1000.000001000.000001000.000001000.000001000.00000
     Eigenvalues --- 1000.000001000.000001000.000001000.000001000.00000
     Eigenvalues --- 1000.000001000.000001000.000001000.000001000.00000
     Eigenvalues --- 1000.000001000.000001000.000001000.000001000.00000
     Eigenvalues --- 1000.000001000.000001000.000001000.000001000.00000
     Eigenvalues --- 1000.000001000.000001000.000001000.000001000.00000
     Eigenvalues --- 1000.000001000.000001000.000001000.000001000.00000
     Eigenvalues --- 1000.000001000.000001000.000001000.000001000.00000
     Eigenvalues --- 1000.000001000.000001000.000001000.000001000.00000
     Eigenvalues --- 1000.000001000.000001000.000001000.000001000.00000
     Eigenvalues --- 1000.000001000.000001000.000001000.000001000.00000
     Eigenvalues --- 1000.000001000.000001000.000001000.00000
 RFO step:  Lambda=-1.34002204D-03 EMin= 1.80576459D-02
 Quartic linear search produced a step of  0.62721.
 Iteration  1 RMS(Cart)=  0.03708658 RMS(Int)=  0.00249641
 Iteration  2 RMS(Cart)=  0.00189957 RMS(Int)=  0.00113760
 Iteration  3 RMS(Cart)=  0.00000548 RMS(Int)=  0.00113700
 New curvilinear step failed, DQL= 7.91D-08 SP=-8.07D-02.
 ITry= 1 IFail=1 DXMaxC= 2.26D-01 DCOld= 1.00D+10 DXMaxT= 5.05D-01 DXLimC= 3.00D+00 Rises=F
 Iteration  1 RMS(Cart)=  0.03475365 RMS(Int)=  0.00221662
 Iteration  2 RMS(Cart)=  0.00168135 RMS(Int)=  0.00101774
 Iteration  3 RMS(Cart)=  0.00000447 RMS(Int)=  0.00101724
 New curvilinear step failed, DQL= 5.96D-08 SP=-7.65D-02.
 ITry= 2 IFail=1 DXMaxC= 2.11D-01 DCOld= 1.00D+10 DXMaxT= 5.05D-01 DXLimC= 3.00D+00 Rises=F
 Iteration  1 RMS(Cart)=  0.03243010 RMS(Int)=  0.00195576
 Iteration  2 RMS(Cart)=  0.00147797 RMS(Int)=  0.00090596
 Iteration  3 RMS(Cart)=  0.00000361 RMS(Int)=  0.00090554
 New curvilinear step failed, DQL= 4.28D-08 SP=-7.50D-02.
 ITry= 3 IFail=1 DXMaxC= 1.96D-01 DCOld= 1.00D+10 DXMaxT= 5.05D-01 DXLimC= 3.00D+00 Rises=F
 Iteration  1 RMS(Cart)=  0.03011809 RMS(Int)=  0.00171373
 Iteration  2 RMS(Cart)=  0.00128933 RMS(Int)=  0.00080225
 Iteration  3 RMS(Cart)=  0.00000287 RMS(Int)=  0.00080191
 New curvilinear step failed, DQL= 3.06D-08 SP=-7.51D-02.
 ITry= 4 IFail=1 DXMaxC= 1.81D-01 DCOld= 1.00D+10 DXMaxT= 5.05D-01 DXLimC= 3.00D+00 Rises=F
 Iteration  1 RMS(Cart)=  0.02782050 RMS(Int)=  0.00149039
 Iteration  2 RMS(Cart)=  0.00111530 RMS(Int)=  0.00070662
 Iteration  3 RMS(Cart)=  0.00000225 RMS(Int)=  0.00070634
 New curvilinear step failed, DQL= 2.01D-08 SP=-8.98D-02.
 ITry= 5 IFail=1 DXMaxC= 1.66D-01 DCOld= 1.00D+10 DXMaxT= 5.05D-01 DXLimC= 3.00D+00 Rises=F
 Iteration  1 RMS(Cart)=  0.02554122 RMS(Int)=  0.00128554
 Iteration  2 RMS(Cart)=  0.00095573 RMS(Int)=  0.00061906
 Iteration  3 RMS(Cart)=  0.00000173 RMS(Int)=  0.00061883
 New curvilinear step failed, DQL= 1.44D-08 SP=-8.41D-02.
 ITry= 6 IFail=1 DXMaxC= 1.51D-01 DCOld= 1.00D+10 DXMaxT= 5.05D-01 DXLimC= 3.00D+00 Rises=F
 Iteration  1 RMS(Cart)=  0.02328564 RMS(Int)=  0.00109896
 Iteration  2 RMS(Cart)=  0.00081039 RMS(Int)=  0.00053957
 Iteration  3 RMS(Cart)=  0.00000131 RMS(Int)=  0.00053939
 New curvilinear step failed, DQL= 7.66D-09 SP=-9.73D-02.
 ITry= 7 IFail=1 DXMaxC= 1.35D-01 DCOld= 1.00D+10 DXMaxT= 5.05D-01 DXLimC= 3.00D+00 Rises=F
 Iteration  1 RMS(Cart)=  0.02106137 RMS(Int)=  0.00093030
 Iteration  2 RMS(Cart)=  0.00067896 RMS(Int)=  0.00046814
 Iteration  3 RMS(Cart)=  0.00000096 RMS(Int)=  0.00046800
 ITry= 8 IFail=0 DXMaxC= 1.20D-01 DCOld= 1.00D+10 DXMaxT= 5.05D-01 DXLimC= 3.00D+00 Rises=F
 Variable       Old X    -DE/DX   Delta X   Delta X   Delta X     New X
                                 (Linear)    (Quad)   (Total)
    X1       -6.52417  -0.00526   0.00000   0.00000   0.00000  -6.52417
    Y1        1.34586   0.01018  -0.00000   0.00000  -0.00000   1.34586
    Z1        0.21222   0.00075   0.00000   0.00000   0.00000   0.21222
    X2       -5.94678   0.00002   0.00000   0.00000   0.00000  -5.94678
    Y2        0.09664   0.00059   0.00000   0.00000   0.00000   0.09664
    Z2        2.49013   0.00032   0.00000   0.00000   0.00000   2.49013
    X3       -5.39077   0.00116   0.00000   0.00000   0.00000  -5.39077
    Y3       -2.47157   0.00025  -0.00000   0.00000   0.00000  -2.47157
    Z3        2.52144  -0.00016   0.00000   0.00000   0.00000   2.52144
    X4       -5.38706   0.00000   0.00000   0.00000   0.00000  -5.38706
    Y4       -3.90170  -0.00000  -0.00000   0.00000  -0.00000  -3.90170
    Z4        0.27656  -0.00000   0.00000   0.00000   0.00000   0.27656
    X5       -3.30808   0.00000  -0.00000   0.00000  -0.00000  -3.30808
    Y5       -5.78322   0.00000   0.00000   0.00000   0.00000  -5.78322
    Z5       -0.05469  -0.00000  -0.00000   0.00000  -0.00000  -0.05469
    X6       -1.93748   0.00014  -0.00000   0.00000  -0.00000  -1.93748
    Y6       -6.77922   0.00118   0.00000   0.00000   0.00000  -6.77922
    Z6        2.00596   0.00048   0.00000   0.00000   0.00000   2.00596
    X7        0.68017   0.00057  -0.00000   0.00000  -0.00000   0.68017
    Y7       -7.03700  -0.00005   0.00000   0.00000   0.00000  -7.03700
    Z7        1.88925   0.00034   0.00000   0.00000   0.00000   1.88925
    X8        2.03862   0.01066  -0.00000   0.00000  -0.00000   2.03862
    Y8       -6.31443  -0.00441   0.00000   0.00000   0.00000  -6.31443
    Z8       -0.29281  -0.00117  -0.00000   0.00000  -0.00000  -0.29281
    X9        0.57826   0.00053  -0.00000   0.00000  -0.00000   0.57826
    Y9       -6.07492   0.00006   0.00000   0.00000   0.00000  -6.07492
    Z9       -2.50789  -0.00034  -0.00000   0.00000  -0.00000  -2.50789
   X10       -2.03219   0.00013  -0.00000   0.00000  -0.00000  -2.03219
   Y10       -5.80649   0.00127   0.00000   0.00000   0.00000  -5.80649
   Z10       -2.39084   0.00005  -0.00000   0.00000  -0.00000  -2.39084
   X11       -6.67166   0.00105   0.00000   0.00000   0.00000  -6.67166
   Y11       -2.80486   0.00022  -0.00000   0.00000  -0.00000  -2.80486
   Z11       -1.78970  -0.00054   0.00000   0.00000   0.00000  -1.78970
   X12       -7.22792  -0.00014   0.00000   0.00000   0.00000  -7.22792
   Y12       -0.23043   0.00057  -0.00000   0.00000  -0.00000  -0.23043
   Z12       -1.82200  -0.00039   0.00000   0.00000  -0.00000  -1.82200
   X13       -5.51023  -0.00057   0.00000   0.00000   0.00000  -5.51023
   Y13        1.19047   0.00000  -0.00000   0.00000   0.00000   1.19047
   Z13        4.16968   0.00015   0.00000   0.00000   0.00000   4.16968
   X14       -4.55233   0.00000   0.00000   0.00000   0.00000  -4.55233
   Y14       -3.24472   0.00000   0.00000   0.00000   0.00000  -3.24472
   Z14        4.22605  -0.00000   0.00000   0.00000   0.00000   4.22605
   X15       -2.86881   0.00000  -0.00000   0.00000  -0.00000  -2.86881
   Y15       -7.08358   0.00000   0.00000   0.00000   0.00000  -7.08358
   Z15        3.81148   0.00000   0.00000   0.00000   0.00000   3.81148
   X16        1.68008   0.00002  -0.00000   0.00000  -0.00000   1.68008
   Y16       -7.52971  -0.00061   0.00000   0.00000   0.00000  -7.52971
   Z16        3.61355  -0.00019   0.00000   0.00000   0.00000   3.61355
   X17        1.48580   0.00005  -0.00000   0.00000  -0.00000   1.48580
   Y17       -5.69331  -0.00061   0.00000   0.00000   0.00000  -5.69331
   Z17       -4.30599  -0.00010  -0.00000   0.00000   0.00000  -4.30599
   X18       -3.00744  -0.00000   0.00000   0.00000   0.00000  -3.00744
   Y18       -5.20922   0.00000   0.00000   0.00000   0.00000  -5.20922
   Z18       -4.09371  -0.00000  -0.00000   0.00000  -0.00000  -4.09371
   X19       -6.98677   0.00000   0.00000   0.00000   0.00000  -6.98677
   Y19       -3.89575   0.00000  -0.00000   0.00000  -0.00000  -3.89575
   Z19       -3.50176  -0.00000   0.00000   0.00000   0.00000  -3.50176
   X20       -7.95359  -0.00057   0.00000   0.00000   0.00000  -7.95359
   Y20        0.59494  -0.00003  -0.00000   0.00000   0.00000   0.59494
   Z20       -3.55801   0.00022   0.00000   0.00000  -0.00000  -3.55801
    R1        2.01904   0.01178   0.04318  -0.01279   0.04019   2.05923
    R2        2.01889   0.01169   0.04309  -0.01293   0.04016   2.05905
    A1        2.13164   0.00294  -0.00057  -0.00244  -0.00310   2.12855
    A2        2.13121   0.00286  -0.00085  -0.00282  -0.00349   2.12772
    A3        2.13523   0.00283  -0.00094  -0.00318  -0.00392   2.13131
    A4        2.13569   0.00292  -0.00065  -0.00279  -0.00351   2.13218
    D1       -2.89859  -0.00270  -0.04450  -0.08208  -0.06915  -2.96775
    D2       -0.00096  -0.00105  -0.04450  -0.08208  -0.06915  -0.07011
    D3        2.89971   0.00272   0.04449   0.08204   0.06910   2.96881
    D4       -0.07862   0.00109   0.04449   0.08204   0.06910  -0.00952
    D5        2.89575   0.00288   0.04700   0.08781   0.07334   2.96909
    D6       -0.07888   0.00114   0.04700   0.08781   0.07334  -0.00554
    D7       -2.89041  -0.00287  -0.04701  -0.08786  -0.07340  -2.96381
    D8        0.02132  -0.00110  -0.04701  -0.08786  -0.07340  -0.05208
         Item               Value     Threshold  Converged?
 Maximum Force            0.011780     0.000450     NO 
 RMS     Force            0.004662     0.000300     NO 
 Maximum Displacement     0.120415     0.001800     NO 
 RMS     Displacement     0.021310     0.001200     NO 
 Predicted change in Energy=-1.001481D-03
 GradGradGradGradGradGradGradGradGradGradGradGradGradGradGradGradGradGrad

                          Input orientation:                          
 ---------------------------------------------------------------------
 Center     Atomic      Atomic             Coordinates (Angstroms)
 Number     Number       Type             X           Y           Z
 ---------------------------------------------------------------------
      1          6           0       -3.452440    0.712200    0.112300
      2          6           0       -3.146900    0.051140    1.317720
      3          6           0       -2.852670   -1.307900    1.334290
      4          6           0       -2.850710   -2.064690    0.146350
      5          6           0       -1.750560   -3.060350   -0.028940
      6          6           0       -1.025270   -3.587410    1.061510
      7          6           0        0.359930   -3.723820    0.999750
      8          6           0        1.078790   -3.341450   -0.154950
      9          6           0        0.306000   -3.214710   -1.327120
     10          6           0       -1.075390   -3.072660   -1.265180
     11          6           0       -3.530490   -1.484270   -0.947070
     12          6           0       -3.824850   -0.121940   -0.964160
     13          1           0       -2.915890    0.629970    2.206500
     14          1           0       -2.408990   -1.717030    2.236330
     15          1           0       -1.518110   -3.748470    2.016950
     16          1           0        0.889060   -3.984550    1.912210
     17          1           0        0.786250   -3.012770   -2.278630
     18          1           0       -1.591470   -2.756600   -2.166300
     19          1           0       -3.697240   -2.061540   -1.853050
     20          1           0       -4.208860    0.314830   -1.882820
     21          1           0       -3.528672    1.797609    0.053031
     22          1           0        2.167109   -3.290577   -0.169358
 ---------------------------------------------------------------------
                    Distance matrix (angstroms):
                    1          2          3          4          5
     1  C    0.000000
     2  C    1.408330   0.000000
     3  C    2.435937   1.390624   0.000000
     4  C    2.841541   2.436508   1.408523   0.000000
     5  C    4.141072   3.666692   2.478734   1.494120   0.000000
     6  C    5.027803   4.219716   2.934274   2.547239   1.411708
     7  C    5.916080   5.162295   4.033533   3.713383   2.439788
     8  C    6.085684   5.615593   4.670068   4.142689   2.846070
     9  C    5.623026   5.439069   4.549310   3.668580   2.436911
    10  C    4.676856   4.551994   3.609757   2.481971   1.408650
    11  C    2.439844   2.762951   2.386451   1.412287   2.548557
    12  C    1.411823   2.386744   2.763061   2.440586   3.716392
    13  H    2.163405   1.085514   2.126050   3.392589   4.469189
    14  H    3.391379   2.124801   1.085318   2.164255   2.714680
    15  H    5.221772   4.192722   2.864168   2.847821   2.170992
    16  H    6.644378   5.738396   4.636700   4.559606   3.404380
    17  H    6.128494   6.147434   5.403842   4.472903   3.390984
    18  H    4.548384   4.737210   3.992930   2.722641   2.164690
    19  H    3.408249   3.849685   3.382367   2.171226   2.848607
    20  H    2.170387   3.382417   3.849974   3.409431   4.568583
    21  H    1.089695   2.189827   3.426775   3.922460   5.173796
    22  H    6.905135   6.451137   5.602691   5.175035   3.926940
                    6          7          8          9         10
     6  C    0.000000
     7  C    1.393270   0.000000
     8  C    2.442814   1.412904   0.000000
     9  C    2.759844   2.382525   1.409699   0.000000
    10  C    2.383478   2.759359   2.438309   1.390055   0.000000
    11  C    3.838453   4.892960   5.032100   4.225815   2.941376
    12  C    4.893922   5.860279   5.921634   5.173093   4.044365
    13  H    4.761485   5.580567   6.107871   6.135846   5.399025
    14  H    2.606378   3.636379   4.530074   4.723599   3.984569
    15  H    1.087059   2.135963   3.409795   3.846437   3.380103
    16  H    2.132151   1.086527   2.173183   3.380218   3.845311
    17  H    3.842961   3.381585   2.168785   1.084800   2.120465
    18  H    3.380767   3.842831   3.393798   2.124731   1.085472
    19  H    4.238203   5.230896   5.228018   4.199087   2.870897
    20  H    5.833678   6.744905   6.656813   5.757640   4.655663
    21  H    6.023494   6.819361   6.905207   6.460098   5.610329
    22  H    3.434302   2.195543   1.089603   2.193148   3.429594
                   11         12         13         14         15
    11  C    0.000000
    12  C    1.393873   0.000000
    13  H    3.846134   3.382996   0.000000
    14  H    3.383190   3.846051   2.401301   0.000000
    15  H    4.238123   5.230658   4.600049   2.229023   0.000000
    16  H    5.827461   6.739006   5.988159   4.015449   2.420986
    17  H    4.769026   5.598837   6.862346   5.680965   4.929841
    18  H    2.620142   3.657125   5.687207   4.596977   4.299857
    19  H    1.087127   2.137395   4.933019   4.301314   4.750920
    20  H    2.138358   1.087275   4.300421   4.933091   6.241694
    21  H    3.430879   2.192502   2.525136   4.286393   6.217582
    22  H    6.027456   6.824628   6.844872   5.404079   4.309345
                   16         17         18         19         20
    16  H    0.000000
    17  H    4.303262   0.000000
    18  H    4.929009   2.394116   0.000000
    19  H    6.237732   4.603003   2.239531   0.000000
    20  H    7.673051   6.015040   4.045340   2.431003   0.000000
    21  H    7.510410   6.869857   5.423929   4.307504   2.531562
    22  H    2.539278   2.536332   4.289502   6.223821   7.522493
                   21         22
    21  H    0.000000
    22  H    7.640747   0.000000
 Stoichiometry    C12H10
 Framework group  C1[X(C12H10)]
 Deg. of freedom    60
 Full point group                 C1      NOp   1
 Largest Abelian subgroup         C1      NOp   1
 Largest concise Abelian subgroup C1      NOp   1
                         Standard orientation:                         
 ---------------------------------------------------------------------
 Center     Atomic      Atomic             Coordinates (Angstroms)
 Number     Number       Type             X           Y           Z
 ---------------------------------------------------------------------
      1          6           0       -3.043274   -0.056710    0.901176
      2          6           0       -2.407452   -1.262566    0.547577
      3          6           0       -1.282696   -1.265861   -0.270194
      4          6           0       -0.744696   -0.063663   -0.769406
      5          6           0        0.743268    0.071832   -0.770367
      6          6           0        1.605507   -1.045519   -0.738912
      7          6           0        2.729891   -1.057921    0.083771
      8          6           0        3.041532    0.046416    0.908161
      9          6           0        2.412998    1.256703    0.551230
     10          6           0        1.287688    1.268591   -0.264728
     11          6           0       -1.608530    1.052960   -0.730688
     12          6           0       -2.735562    1.056708    0.089476
     13          1           0       -2.645221   -2.175215    1.085051
     14          1           0       -0.703762   -2.182048   -0.328080
     15          1           0        1.320045   -1.968341   -1.237518
     16          1           0        3.273257   -1.992495    0.192708
     17          1           0        2.661723    2.175412    1.071712
     18          1           0        0.716848    2.189913   -0.324370
     19          1           0       -1.323473    1.979171   -1.223356
     20          1           0       -3.288030    1.985566    0.208514
     21          1           0       -3.822078   -0.016954    1.662308
     22          1           0        3.818648   -0.000825    1.670455
 ---------------------------------------------------------------------
 Rotational constants (GHZ):      2.1761927      0.6374801      0.5674645
 Standard basis: 6-31G(d) (6D, 7F)
 There are   200 symmetry adapted cartesian basis functions of A   symmetry.
 There are   200 symmetry adapted basis functions of A   symmetry.
   200 basis functions,   376 primitive gaussians,   200 cartesian basis functions
    41 alpha electrons       41 beta electrons
       nuclear repulsion energy       607.4034451457 Hartrees.
 NAtoms=   22 NActive=   22 NUniq=   22 SFac= 1.00D+00 NAtFMM=   60 NAOKFM=F Big=F
 Integral buffers will be    131072 words long.
 Raffenetti 2 integral format.
 Two-electron integral symmetry is turned on.
 One-electron integrals computed using PRISM.
 NBasis=   200 RedAO= T EigKep=  5.94D-04  NBF=   200
 NBsUse=   200 1.00D-06 EigRej= -1.00D+00 NBFU=   200
 Initial guess from the checkpoint file:  "/tmp/Gau-162806.chk"
 B after Tr=     0.000000    0.000000    0.000000
         Rot=    1.000000    0.000017   -0.000011    0.000072 Ang=   0.01 deg.
 ExpMin= 1.61D-01 ExpMax= 3.05D+03 ExpMxC= 4.57D+02 IAcc=1 IRadAn=         1 AccDes= 0.00D+00
 Harris functional with IExCor=  402 and IRadAn=       1 diagonalized for initial guess.
 HarFok:  IExCor=  402 AccDes= 0.00D+00 IRadAn=         1 IDoV= 1 UseB2=F ITyADJ=14
 ICtDFT=  3500011 ScaDFX=  1.000000  1.000000  1.000000  1.000000
 FoFCou: FMM=F IPFlag=           0 FMFlag=      100000 FMFlg1=           0
         NFxFlg=           0 DoJE=T BraDBF=F KetDBF=T FulRan=T
         wScrn=  0.000000 ICntrl=     500 IOpCl=  0 I1Cent=   200000004 NGrid=           0
         NMat0=    1 NMatS0=      1 NMatT0=    0 NMatD0=    1 NMtDS0=    0 NMtDT0=    0
 Petite list used in FoFCou.
 Requested convergence on RMS density matrix=1.00D-08 within 128 cycles.
 Requested convergence on MAX density matrix=1.00D-06.
 Requested convergence on             energy=1.00D-06.
 No special actions if energy rises.
 Integral accuracy reduced to 1.0D-05 until final iterations.
 Initial convergence to 1.0D-05 achieved.  Increase integral accuracy.
 SCF Done:  E(RB3LYP) =  -463.254295454     A.U. after   12 cycles
            NFock= 12  Conv=0.44D-08     -V/T= 2.0102
 Calling FoFJK, ICntrl=      2127 FMM=F ISym2X=0 I1Cent= 0 IOpClX= 0 NMat=1 NMatS=1 NMatT=0.
 ***** Axes restored to original set *****
 -------------------------------------------------------------------
 Center     Atomic                   Forces (Hartrees/Bohr)
 Number     Number              X              Y              Z
 -------------------------------------------------------------------
      1        6          -0.000000000   -0.000000000    0.000000000
      2        6          -0.000000000   -0.000000000    0.000000000
[...]
     8  C    2.442814   1.412904   0.000000
     9  C    2.759844   2.382525   1.409699   0.000000
    10  C    2.383478   2.759359   2.438309   1.390055   0.000000
    11  C    3.838453   4.892960   5.032100   4.225815   2.941376
    12  C    4.893922   5.860279   5.921634   5.173093   4.044365
    13  H    4.761485   5.580567   6.107871   6.135846   5.399025
    14  H    2.606378   3.636379   4.530074   4.723599   3.984569
    15  H    1.087059   2.135963   3.409795   3.846437   3.380103
    16  H    2.132151   1.086527   2.173183   3.380218   3.845311
    17  H    3.842961   3.381585   2.168785   1.084800   2.120465
    18  H    3.380767   3.842831   3.393798   2.124731   1.085472
    19  H    4.238203   5.230896   5.228018   4.199087   2.870897
    20  H    5.833678   6.744905   6.656813   5.757640   4.655663
    21  H    6.028657   6.830179   6.921106   6.475246   5.620196
    22  H    3.430409   2.189573   1.084689   2.187407   3.425909
                   11         12         13         14         15
    11  C    0.000000
    12  C    1.393873   0.000000
    13  H    3.846134   3.382996   0.000000
    14  H    3.383190   3.846051   2.401301   0.000000
    15  H    4.238123   5.230658   4.600049   2.229023   0.000000
    16  H    5.827461   6.739006   5.988159   4.015449   2.420986
    17  H    4.769026   5.598837   6.862346   5.680965   4.929841
    18  H    2.620142   3.657125   5.687207   4.596977   4.299857
    19  H    1.087127   2.137395   4.933019   4.301314   4.750920
    20  H    2.138358   1.087275   4.300421   4.933091   6.241694
    21  H    3.427121   2.186861   2.521510   4.284041   6.218470
    22  H    6.033343   6.836609   6.864565   5.414277   4.306109
                   16         17         18         19         20
    16  H    0.000000
    17  H    4.303262   0.000000
    18  H    4.929009   2.394116   0.000000
    19  H    6.237732   4.603003   2.239531   0.000000
    20  H    7.673051   6.015040   4.045340   2.431003   0.000000
    21  H    7.521020   6.887800   5.433173   4.304381   2.526638
    22  H    2.533989   2.532153   4.287115   6.225108   7.534295
                   21         22
    21  H    0.000000
    22  H    7.680111   0.000000
 Stoichiometry    C12H10
 Framework group  C1[X(C12H10)]
 Deg. of freedom    60
 Full point group                 C1      NOp   1
 Largest Abelian subgroup         C1      NOp   1
 Largest concise Abelian subgroup C1      NOp   1
                         Standard orientation:                         
 ---------------------------------------------------------------------
 Center     Atomic      Atomic             Coordinates (Angstroms)
 Number     Number       Type             X           Y           Z
 ---------------------------------------------------------------------
      1          6           0       -3.043318   -0.056064    0.901810
      2          6           0       -2.407741   -1.262062    0.548249
      3          6           0       -1.282977   -1.265610   -0.269509
      4          6           0       -0.744722   -0.063536   -0.768746
      5          6           0        0.743270    0.071650   -0.769693
      6          6           0        1.605277   -1.045879   -0.738200
      7          6           0        2.729649   -1.058492    0.084497
      8          6           0        3.041509    0.045802    0.908861
      9          6           0        2.413230    1.256210    0.551892
     10          6           0        1.287931    1.268310   -0.264079
     11          6           0       -1.608326    1.053266   -0.730066
     12          6           0       -2.735366    1.057269    0.090084
     13          1           0       -2.645705   -2.174647    1.085744
     14          1           0       -0.704232   -2.181919   -0.327364
     15          1           0        1.319630   -1.968654   -1.236786
     16          1           0        3.272821   -1.993175    0.193464
     17          1           0        2.662139    2.174881    1.072353
     18          1           0        0.717284    2.189749   -0.323752
     19          1           0       -1.323072    1.979405   -1.222755
     20          1           0       -3.287643    1.986245    0.209093
     21          1           0       -3.840886   -0.023790    1.636532
     22          1           0        3.839162    0.006719    1.642873
 ---------------------------------------------------------------------
 Rotational constants (GHZ):      2.1779240      0.6373835      0.5672709

 **********************************************************************

            Population analysis using the SCF density.

 **********************************************************************

 Orbital symmetries:
       Occupied  (A) (A) (A) (A) (A) (A) (A) (A) (A) (A) (A) (A)
                 (A) (A) (A) (A) (A) (A) (A) (A) (A) (A) (A) (A)
                 (A) (A) (A) (A) (A) (A) (A) (A) (A) (A) (A) (A)
                 (A) (A) (A) (A) (A)
       Virtual   (A) (A) (A) (A) (A) (A) (A) (A) (A) (A) (A) (A)
                 (A) (A) (A) (A) (A) (A) (A) (A) (A) (A) (A) (A)
                 (A) (A) (A) (A) (A) (A) (A) (A) (A) (A) (A) (A)
                 (A) (A) (A) (A) (A) (A) (A) (A) (A) (A) (A) (A)
                 (A) (A) (A) (A) (A) (A) (A) (A) (A) (A) (A) (A)
                 (A) (A) (A) (A) (A) (A) (A) (A) (A) (A) (A) (A)
                 (A) (A) (A) (A) (A) (A) (A) (A) (A) (A) (A) (A)
                 (A) (A) (A) (A) (A) (A) (A) (A) (A) (A) (A) (A)
                 (A) (A) (A) (A) (A) (A) (A) (A) (A) (A) (A) (A)
                 (A) (A) (A) (A) (A) (A) (A) (A) (A) (A) (A) (A)
                 (A) (A) (A) (A) (A) (A) (A) (A) (A) (A) (A) (A)
                 (A) (A) (A) (A) (A) (A) (A) (A) (A) (A) (A) (A)
                 (A) (A) (A) (A) (A) (A) (A) (A) (A) (A) (A) (A)
                 (A) (A) (A)
 The electronic state is 1-A.
 Alpha  occ. eigenvalues --  -10.20324 -10.20292 -10.19092 -10.19086 -10.19017
 Alpha  occ. eigenvalues --  -10.18983 -10.18924 -10.18918 -10.18793 -10.18753
 Alpha  occ. eigenvalues --  -10.18746 -10.18720  -0.86476  -0.83952  -0.76934
 Alpha  occ. eigenvalues --   -0.74636  -0.73659  -0.71492  -0.62135  -0.61104
 Alpha  occ. eigenvalues --   -0.57998  -0.57639  -0.52693  -0.49692  -0.47408
 Alpha  occ. eigenvalues --   -0.45444  -0.43597  -0.42350  -0.42011  -0.41972
 Alpha  occ. eigenvalues --   -0.40953  -0.38126  -0.37287  -0.34587  -0.34273
 Alpha  occ. eigenvalues --   -0.33380  -0.32420  -0.26976  -0.25062  -0.24187
 Alpha  occ. eigenvalues --   -0.20667
 Alpha virt. eigenvalues --   -0.03814  -0.00813   0.01456   0.01814   0.09056
 Alpha virt. eigenvalues --    0.10157   0.12393   0.12466   0.13954   0.14720
 Alpha virt. eigenvalues --    0.15715   0.17139   0.17989   0.18409   0.21520
 Alpha virt. eigenvalues --    0.23204   0.27088   0.27244   0.28712   0.29680
 Alpha virt. eigenvalues --    0.30707   0.32338   0.35998   0.37994   0.38261
 Alpha virt. eigenvalues --    0.45128   0.50134   0.52155   0.52408   0.52719
 Alpha virt. eigenvalues --    0.53409   0.54415   0.54976   0.56687   0.58612
 Alpha virt. eigenvalues --    0.59059   0.59611   0.60070   0.60320   0.60856
 Alpha virt. eigenvalues --    0.61228   0.61385   0.61479   0.62481   0.63239
 Alpha virt. eigenvalues --    0.63332   0.64858   0.66907   0.68239   0.68278
 Alpha virt. eigenvalues --    0.70162   0.73831   0.76456   0.82341   0.82835
 Alpha virt. eigenvalues --    0.82965   0.84076   0.84525   0.85079   0.86668
 Alpha virt. eigenvalues --    0.87806   0.90137   0.91973   0.92676   0.92919
 Alpha virt. eigenvalues --    0.93087   0.94052   0.94392   1.00090   1.00998
 Alpha virt. eigenvalues --    1.02154   1.02541   1.04882   1.05654   1.09189
 Alpha virt. eigenvalues --    1.13589   1.15022   1.16751   1.17744   1.18092
 Alpha virt. eigenvalues --    1.23143   1.26369   1.29592   1.36290   1.36883
 Alpha virt. eigenvalues --    1.39886   1.39999   1.46418   1.48778   1.49252
 Alpha virt. eigenvalues --    1.50457   1.51570   1.52024   1.57478   1.60384
 Alpha virt. eigenvalues --    1.62687   1.67420   1.70074   1.76729   1.79354
 Alpha virt. eigenvalues --    1.83263   1.83839   1.85523   1.88533   1.89850
 Alpha virt. eigenvalues --    1.96958   1.98346   1.99555   1.99693   2.02556
 Alpha virt. eigenvalues --    2.02758   2.08564   2.08614   2.10015   2.11829
 Alpha virt. eigenvalues --    2.14069   2.16972   2.20084   2.20445   2.21699
 Alpha virt. eigenvalues --    2.25308   2.28706   2.30393   2.35320   2.37141
 Alpha virt. eigenvalues --    2.38384   2.45122   2.49638   2.54134   2.56721
 Alpha virt. eigenvalues --    2.58468   2.59215   2.60345   2.64042   2.65796
 Alpha virt. eigenvalues --    2.68711   2.72396   2.74394   2.74980   2.77843
 Alpha virt. eigenvalues --    2.78519   2.83056   2.86361   2.97308   3.15222
 Alpha virt. eigenvalues --    3.27208   3.38738   4.07500   4.08957   4.10772
 Alpha virt. eigenvalues --    4.11937   4.13143   4.23242   4.29496   4.33744
 Alpha virt. eigenvalues --    4.38755   4.42887   4.59259   4.72070
          Condensed to atoms (all electrons):
               1          2          3          4          5          6
     1  C    4.879251   0.536293  -0.036201  -0.032367   0.000227   0.000035
     2  C    0.536293   4.883933   0.522390  -0.027946   0.006674   0.000402
     3  C   -0.036201   0.522390   5.000292   0.537482  -0.051952  -0.023602
     4  C   -0.032367  -0.027946   0.537482   4.775732   0.367152  -0.049910
     5  C    0.000227   0.006674  -0.051952   0.367152   4.776231   0.501314
     6  C    0.000035   0.000402  -0.023602  -0.049910   0.501314   5.047801
     7  C    0.000001  -0.000046   0.000991   0.003763  -0.022406   0.521236
     8  C   -0.000002  -0.000007   0.000122   0.000220  -0.032303  -0.036343
     9  C   -0.000007  -0.000004   0.000303   0.006680  -0.027729  -0.046946
    10  C    0.000118   0.000297  -0.000149  -0.051985   0.537266  -0.064729
    11  C   -0.036060  -0.046957  -0.064381   0.500894  -0.049813   0.007939
    12  C    0.533942  -0.021765  -0.043531  -0.022381   0.003765  -0.000083
    13  H   -0.044530   0.360369  -0.042195   0.004538  -0.000165  -0.000021
    14  H    0.004858  -0.044320   0.349517  -0.038658  -0.014118   0.010171
    15  H   -0.000005   0.000204   0.000810  -0.007692  -0.038589   0.351242
    16  H   -0.000000  -0.000001   0.000014  -0.000120   0.004071  -0.041207
    17  H   -0.000000   0.000000   0.000002  -0.000168   0.004635   0.000637
    18  H    0.000012  -0.000022  -0.000226  -0.013895  -0.038744   0.006366
    19  H    0.004791   0.000294   0.005749  -0.038489  -0.007697  -0.000200
    20  H   -0.044412   0.004843   0.000542   0.004007  -0.000118   0.000003
    21  H    0.360019  -0.042573   0.005106   0.000584   0.000006  -0.000001
    22  H    0.000000   0.000000  -0.000003   0.000006   0.000580   0.004874
               7          8          9         10         11         12
     1  C    0.000001  -0.000002  -0.000007   0.000118  -0.036060   0.533942
     2  C   -0.000046  -0.000007  -0.000004   0.000297  -0.046957  -0.021765
     3  C    0.000991   0.000122   0.000303  -0.000149  -0.064381  -0.043531
     4  C    0.003763   0.000220   0.006680  -0.051985   0.500894  -0.022381
     5  C   -0.022406  -0.032303  -0.027729   0.537266  -0.049813   0.003765
     6  C    0.521236  -0.036343  -0.046946  -0.064729   0.007939  -0.000083
     7  C    4.882217   0.532671  -0.021615  -0.043742  -0.000084   0.000001
     8  C    0.532671   4.882104   0.534976  -0.036100   0.000035   0.000001
     9  C   -0.021615   0.534976   4.883672   0.523709   0.000379  -0.000045
    10  C   -0.043742  -0.036100   0.523709   4.998849  -0.023179   0.000996
    11  C   -0.000084   0.000035   0.000379  -0.023179   5.047863   0.520992
    12  C    0.000001   0.000001  -0.000045   0.000996   0.520992   4.880455
    13  H   -0.000001  -0.000000   0.000000   0.000002   0.000628   0.004724
    14  H    0.000325   0.000013  -0.000023  -0.000226   0.006326   0.000335
    15  H   -0.044457   0.004807   0.000289   0.005768  -0.000202   0.000006
    16  H    0.359831  -0.044433   0.004794   0.000568   0.000003  -0.000000
    17  H    0.004701  -0.044631   0.360173  -0.042323  -0.000020  -0.000001
    18  H    0.000322   0.004877  -0.044459   0.349640   0.009959   0.000298
    19  H    0.000006  -0.000005   0.000198   0.000847   0.351231  -0.044482
    20  H   -0.000000  -0.000000  -0.000001   0.000013  -0.041192   0.359978
    21  H    0.000000   0.000000   0.000000  -0.000003   0.004927  -0.042284
    22  H   -0.042089   0.360242  -0.042379   0.005039  -0.000001   0.000000
              13         14         15         16         17         18
     1  C   -0.044530   0.004858  -0.000005  -0.000000  -0.000000   0.000012
     2  C    0.360369  -0.044320   0.000204  -0.000001   0.000000  -0.000022
     3  C   -0.042195   0.349517   0.000810   0.000014   0.000002  -0.000226
     4  C    0.004538  -0.038658  -0.007692  -0.000120  -0.000168  -0.013895
     5  C   -0.000165  -0.014118  -0.038589   0.004071   0.004635  -0.038744
     6  C   -0.000021   0.010171   0.351242  -0.041207   0.000637   0.006366
     7  C   -0.000001   0.000325  -0.044457   0.359831   0.004701   0.000322
     8  C   -0.000000   0.000013   0.004807  -0.044433  -0.044631   0.004877
     9  C    0.000000  -0.000023   0.000289   0.004794   0.360173  -0.044459
    10  C    0.000002  -0.000226   0.005768   0.000568  -0.042323   0.349640
    11  C    0.000628   0.006326  -0.000202   0.000003  -0.000020   0.009959
    12  C    0.004724   0.000335   0.000006  -0.000000  -0.000001   0.000298
    13  H    0.599173  -0.007334   0.000006   0.000000   0.000000   0.000000
    14  H   -0.007334   0.599966   0.002728   0.000028   0.000000  -0.000006
    15  H    0.000006   0.002728   0.598619  -0.007146   0.000015  -0.000192
    16  H    0.000000   0.000028  -0.007146   0.599103  -0.000206   0.000014
    17  H    0.000000   0.000000   0.000015  -0.000206   0.599911  -0.007501
    18  H    0.000000  -0.000006  -0.000192   0.000014  -0.007501   0.600464
    19  H    0.000015  -0.000190  -0.000000   0.000000   0.000006   0.002720
    20  H   -0.000206   0.000014   0.000000   0.000000   0.000000   0.000025
    21  H   -0.004764  -0.000156  -0.000000  -0.000000  -0.000000  -0.000000
    22  H   -0.000000  -0.000000  -0.000144  -0.004591  -0.004646  -0.000153
              19         20         21         22
     1  C    0.004791  -0.044412   0.360019   0.000000
     2  C    0.000294   0.004843  -0.042573   0.000000
     3  C    0.005749   0.000542   0.005106  -0.000003
     4  C   -0.038489   0.004007   0.000584   0.000006
     5  C   -0.007697  -0.000118   0.000006   0.000580
     6  C   -0.000200   0.000003  -0.000001   0.004874
     7  C    0.000006  -0.000000   0.000000  -0.042089
     8  C   -0.000005  -0.000000   0.000000   0.360242
     9  C    0.000198  -0.000001   0.000000  -0.042379
    10  C    0.000847   0.000013  -0.000003   0.005039
    11  C    0.351231  -0.041192   0.004927  -0.000001
    12  C   -0.044482   0.359978  -0.042284   0.000000
    13  H    0.000015  -0.000206  -0.004764  -0.000000
    14  H   -0.000190   0.000014  -0.000156  -0.000000
    15  H   -0.000000   0.000000  -0.000000  -0.000144
    16  H    0.000000   0.000000  -0.000000  -0.004591
    17  H    0.000006   0.000000  -0.000000  -0.004646
    18  H    0.002720   0.000025  -0.000000  -0.000153
    19  H    0.598395  -0.006965  -0.000147  -0.000000
    20  H   -0.006965   0.598593  -0.004692  -0.000000
    21  H   -0.000147  -0.004692   0.590558  -0.000000
    22  H   -0.000000  -0.000000  -0.000000   0.589288
 Mulliken charges:
               1
     1  C   -0.125962
     2  C   -0.132055
     3  C   -0.161079
     4  C    0.082554
     5  C    0.081714
     6  C   -0.188979
     7  C   -0.131625
     8  C   -0.126242
     9  C   -0.131965
    10  C   -0.160675
    11  C   -0.189286
    12  C   -0.130923
    13  H    0.129761
    14  H    0.130749
    15  H    0.133933
    16  H    0.129277
    17  H    0.129415
    18  H    0.130499
    19  H    0.133924
    20  H    0.129567
    21  H    0.133421
    22  H    0.133978
 Sum of Mulliken charges =  -0.00000
 Mulliken charges with hydrogens summed into heavy atoms:
               1
     1  C    0.007458
     2  C   -0.002294
     3  C   -0.030330
     4  C    0.082554
     5  C    0.081714
     6  C   -0.055045
     7  C   -0.002349
     8  C    0.007736
     9  C   -0.002551
    10  C   -0.030176
    11  C   -0.055362
    12  C   -0.001356
 Electronic spatial extent (au):  <R**2>=           2063.4246
 Charge=             -0.0000 electrons
 Dipole moment (field-independent basis, Debye):
    X=              0.0020    Y=              0.0028    Z=              0.9161  Tot=              0.9161
 Quadrupole moment (field-independent basis, Debye-Ang):
   XX=            -66.9484   YY=            -62.2283   ZZ=            -70.6845
   XY=             -2.1676   XZ=             -0.0189   YZ=             -0.0167
 Traceless Quadrupole moment (field-independent basis, Debye-Ang):
   XX=             -0.3280   YY=              4.3921   ZZ=             -4.0641
   XY=             -2.1676   XZ=             -0.0189   YZ=             -0.0167
 Octapole moment (field-independent basis, Debye-Ang**2):
  XXX=              0.0114  YYY=              0.1088  ZZZ=              5.2942  XYY=              0.0826
  XXY=              0.1490  XXZ=             26.7375  XZZ=              0.0033  YZZ=             -0.0975
  YYZ=              0.3427  XYZ=              5.7797
 Hexadecapole moment (field-independent basis, Debye-Ang**3):
 XXXX=          -2020.4513 YYYY=           -512.8899 ZZZZ=           -270.6733 XXXY=            -37.1656
 XXXZ=              0.0438 YYYX=             -8.2019 YYYZ=             -0.0744 ZZZX=             -0.0038
 ZZZY=             -0.0997 XXYY=           -404.4863 XXZZ=           -370.7940 YYZZ=           -133.6498
 XXYZ=             -0.0469 YYXZ=             -0.2222 ZZXY=              3.0132
 N-N= 6.074394170243D+02 E-N=-2.286999947020D+03  KE= 4.586104491414D+02
 1\1\GINC-N199\FOpt\RB3LYP\6-31G(d)\C12H10\CCOLWELL\18-Apr-2019\0\\#n B
 3LYP/6-31G(d) opt\\proton optimization\\0,1\C,-3.45244,0.7122,0.1123\C
 ,-3.1469,0.05114,1.31772\C,-2.85267,-1.3079,1.33429\C,-2.85071,-2.0646
 9,0.14635\C,-1.75056,-3.06035,-0.02894\C,-1.02527,-3.58741,1.06151\C,0
 .35993,-3.72382,0.99975\C,1.07879,-3.34145,-0.15495\C,0.306,-3.21471,-
 1.32712\C,-1.07539,-3.07266,-1.26518\C,-3.53049,-1.48427,-0.94707\C,-3
 .82485,-0.12194,-0.96416\H,-2.91589,0.62997,2.2065\H,-2.40899,-1.71703
 ,2.23633\H,-1.51811,-3.74847,2.01695\H,0.88906,-3.98455,1.91221\H,0.78
 625,-3.01277,-2.27863\H,-1.59147,-2.7566,-2.1663\H,-3.69724,-2.06154,-
 1.85305\H,-4.20886,0.31483,-1.88282\H,-3.5597746698,1.7906157128,0.062
 5956228\H,2.1631442779,-3.3255390688,-0.176693101\\Version=EM64L-G09Re
 vE.01\State=1-A\HF=-463.2544256\RMSD=7.346e-09\RMSF=4.903e-06\Dipole=0
 .2401672,0.2679814,-0.0203076\Quadrupole=-1.3401297,-1.8161249,3.15625
 46,-1.40657,1.4984523,-0.8783987\PG=C01 [X(C12H10)]\\@


 LORD, MAN... WERE YE BUT WHYLES WHERE I AM, 
 THE GENTILES YE WAD NE'ER ENVY 'EM.        
 IT'S TRUE, THEY NEEDNA STARVE OR SWEAT,     
 THRO' WINTER'S CAULD OR SIMMER'S HEAT...  
 THEY'VE NAE SAIR WARK TO CRAZE THEIR BANES, 
 AND FILL AULD AGE WITH GRIPS AN' GRANES...  
                                             
 BUT HUMAN BODIES ARE SIC FOOLS              
 FOR A' THEIR COLLEGES AND SCHOOLS,           
 THAT WHEN NAE REAL ILLS PERPLEX THEM,       
 THEY MAK ENOW THEMSELVES TO VEX THEM,       
 AN' AYE THE LESS THEY HAE TO STURT THEM,    
 IN LIKE PROPORTION LESS WILL HURT THEM....  
                                             
                (ROBERT BURNS 'THE TWA DOGS')
 Job cpu time:       0 days  0 hours  5 minutes 30.2 seconds.
 File lengths (MBytes):  RWF=     27 Int=      0 D2E=      0 Chk=      4 Scr=      1
 Normal termination of Gaussian 09 at Thu Apr 18 15:59:39 2019.
